+ 0.1 0 4 tcp 40 ------- 2 0.0 5.0 0 0
- 0.1 0 4 tcp 40 ------- 2 0.0 5.0 0 0
r 0.120032 0 4 tcp 40 ------- 2 0.0 5.0 0 0
+ 0.120032 4 5 tcp 40 ------- 2 0.0 5.0 0 0
- 0.120032 4 5 tcp 40 ------- 2 0.0 5.0 0 0
r 0.140096 4 5 tcp 40 ------- 2 0.0 5.0 0 0
+ 0.140096 5 4 ack 40 ------- 2 5.0 0.0 0 1
- 0.140096 5 4 ack 40 ------- 2 5.0 0.0 0 1
r 0.16016 5 4 ack 40 ------- 2 5.0 0.0 0 1
+ 0.16016 4 0 ack 40 ------- 2 5.0 0.0 0 1
- 0.16016 4 0 ack 40 ------- 2 5.0 0.0 0 1
r 0.180192 4 0 ack 40 ------- 2 5.0 0.0 0 1
+ 0.180192 0 4 tcp 1040 ------- 2 0.0 5.0 1 2
- 0.180192 0 4 tcp 1040 ------- 2 0.0 5.0 1 2
+ 0.180192 0 4 tcp 1040 ------- 2 0.0 5.0 2 3
- 0.181024 0 4 tcp 1040 ------- 2 0.0 5.0 2 3
+ 0.2 3 4 cbr 1000 ------- 4 3.0 5.3 0 4
- 0.2 3 4 cbr 1000 ------- 4 3.0 5.3 0 4
r 0.201024 0 4 tcp 1040 ------- 2 0.0 5.0 1 2
+ 0.201024 4 5 tcp 1040 ------- 2 0.0 5.0 1 2
- 0.201024 4 5 tcp 1040 ------- 2 0.0 5.0 1 2
r 0.201856 0 4 tcp 1040 ------- 2 0.0 5.0 2 3
+ 0.201856 4 5 tcp 1040 ------- 2 0.0 5.0 2 3
- 0.202688 4 5 tcp 1040 ------- 2 0.0 5.0 2 3
+ 0.208 3 4 cbr 1000 ------- 4 3.0 5.3 1 5
- 0.208 3 4 cbr 1000 ------- 4 3.0 5.3 1 5
+ 0.216 3 4 cbr 1000 ------- 4 3.0 5.3 2 6
- 0.216 3 4 cbr 1000 ------- 4 3.0 5.3 2 6
r 0.22008 3 4 cbr 1000 ------- 4 3.0 5.3 0 4
+ 0.22008 4 5 cbr 1000 ------- 4 3.0 5.3 0 4
- 0.22008 4 5 cbr 1000 ------- 4 3.0 5.3 0 4
r 0.222688 4 5 tcp 1040 ------- 2 0.0 5.0 1 2
+ 0.222688 5 4 ack 40 ------- 2 5.0 0.0 1 7
- 0.222688 5 4 ack 40 ------- 2 5.0 0.0 1 7
+ 0.224 3 4 cbr 1000 ------- 4 3.0 5.3 3 8
- 0.224 3 4 cbr 1000 ------- 4 3.0 5.3 3 8
r 0.224352 4 5 tcp 1040 ------- 2 0.0 5.0 2 3
+ 0.224352 5 4 ack 40 ------- 2 5.0 0.0 2 9
- 0.224352 5 4 ack 40 ------- 2 5.0 0.0 2 9
r 0.22808 3 4 cbr 1000 ------- 4 3.0 5.3 1 5
+ 0.22808 4 5 cbr 1000 ------- 4 3.0 5.3 1 5
- 0.22808 4 5 cbr 1000 ------- 4 3.0 5.3 1 5
+ 0.232 3 4 cbr 1000 ------- 4 3.0 5.3 4 10
- 0.232 3 4 cbr 1000 ------- 4 3.0 5.3 4 10
r 0.23608 3 4 cbr 1000 ------- 4 3.0 5.3 2 6
+ 0.23608 4 5 cbr 1000 ------- 4 3.0 5.3 2 6
- 0.23608 4 5 cbr 1000 ------- 4 3.0 5.3 2 6
+ 0.24 3 4 cbr 1000 ------- 4 3.0 5.3 5 11
- 0.24 3 4 cbr 1000 ------- 4 3.0 5.3 5 11
r 0.24168 4 5 cbr 1000 ------- 4 3.0 5.3 0 4
r 0.242752 5 4 ack 40 ------- 2 5.0 0.0 1 7
+ 0.242752 4 0 ack 40 ------- 2 5.0 0.0 1 7
- 0.242752 4 0 ack 40 ------- 2 5.0 0.0 1 7
r 0.24408 3 4 cbr 1000 ------- 4 3.0 5.3 3 8
+ 0.24408 4 5 cbr 1000 ------- 4 3.0 5.3 3 8
- 0.24408 4 5 cbr 1000 ------- 4 3.0 5.3 3 8
r 0.244416 5 4 ack 40 ------- 2 5.0 0.0 2 9
+ 0.244416 4 0 ack 40 ------- 2 5.0 0.0 2 9
- 0.244416 4 0 ack 40 ------- 2 5.0 0.0 2 9
+ 0.248 3 4 cbr 1000 ------- 4 3.0 5.3 6 12
- 0.248 3 4 cbr 1000 ------- 4 3.0 5.3 6 12
r 0.24968 4 5 cbr 1000 ------- 4 3.0 5.3 1 5
r 0.25208 3 4 cbr 1000 ------- 4 3.0 5.3 4 10
+ 0.25208 4 5 cbr 1000 ------- 4 3.0 5.3 4 10
- 0.25208 4 5 cbr 1000 ------- 4 3.0 5.3 4 10
+ 0.256 3 4 cbr 1000 ------- 4 3.0 5.3 7 13
- 0.256 3 4 cbr 1000 ------- 4 3.0 5.3 7 13
r 0.25768 4 5 cbr 1000 ------- 4 3.0 5.3 2 6
r 0.26008 3 4 cbr 1000 ------- 4 3.0 5.3 5 11
+ 0.26008 4 5 cbr 1000 ------- 4 3.0 5.3 5 11
- 0.26008 4 5 cbr 1000 ------- 4 3.0 5.3 5 11
r 0.262784 4 0 ack 40 ------- 2 5.0 0.0 1 7
+ 0.262784 0 4 tcp 1040 ------- 2 0.0 5.0 3 14
- 0.262784 0 4 tcp 1040 ------- 2 0.0 5.0 3 14
+ 0.262784 0 4 tcp 1040 ------- 2 0.0 5.0 4 15
- 0.263616 0 4 tcp 1040 ------- 2 0.0 5.0 4 15
+ 0.264 3 4 cbr 1000 ------- 4 3.0 5.3 8 16
- 0.264 3 4 cbr 1000 ------- 4 3.0 5.3 8 16
r 0.264448 4 0 ack 40 ------- 2 5.0 0.0 2 9
+ 0.264448 0 4 tcp 1040 ------- 2 0.0 5.0 5 17
+ 0.264448 0 4 tcp 1040 ------- 2 0.0 5.0 6 18
- 0.264448 0 4 tcp 1040 ------- 2 0.0 5.0 5 17
- 0.26528 0 4 tcp 1040 ------- 2 0.0 5.0 6 18
r 0.26568 4 5 cbr 1000 ------- 4 3.0 5.3 3 8
r 0.26808 3 4 cbr 1000 ------- 4 3.0 5.3 6 12
+ 0.26808 4 5 cbr 1000 ------- 4 3.0 5.3 6 12
- 0.26808 4 5 cbr 1000 ------- 4 3.0 5.3 6 12
+ 0.272 3 4 cbr 1000 ------- 4 3.0 5.3 9 19
- 0.272 3 4 cbr 1000 ------- 4 3.0 5.3 9 19
r 0.27368 4 5 cbr 1000 ------- 4 3.0 5.3 4 10
r 0.27608 3 4 cbr 1000 ------- 4 3.0 5.3 7 13
+ 0.27608 4 5 cbr 1000 ------- 4 3.0 5.3 7 13
- 0.27608 4 5 cbr 1000 ------- 4 3.0 5.3 7 13
+ 0.28 3 4 cbr 1000 ------- 4 3.0 5.3 10 20
- 0.28 3 4 cbr 1000 ------- 4 3.0 5.3 10 20
r 0.28168 4 5 cbr 1000 ------- 4 3.0 5.3 5 11
r 0.283616 0 4 tcp 1040 ------- 2 0.0 5.0 3 14
+ 0.283616 4 5 tcp 1040 ------- 2 0.0 5.0 3 14
- 0.283616 4 5 tcp 1040 ------- 2 0.0 5.0 3 14
r 0.28408 3 4 cbr 1000 ------- 4 3.0 5.3 8 16
+ 0.28408 4 5 cbr 1000 ------- 4 3.0 5.3 8 16
r 0.284448 0 4 tcp 1040 ------- 2 0.0 5.0 4 15
+ 0.284448 4 5 tcp 1040 ------- 2 0.0 5.0 4 15
r 0.28528 0 4 tcp 1040 ------- 2 0.0 5.0 5 17
+ 0.28528 4 5 tcp 1040 ------- 2 0.0 5.0 5 17
- 0.28528 4 5 cbr 1000 ------- 4 3.0 5.3 8 16
r 0.286112 0 4 tcp 1040 ------- 2 0.0 5.0 6 18
+ 0.286112 4 5 tcp 1040 ------- 2 0.0 5.0 6 18
- 0.28688 4 5 tcp 1040 ------- 2 0.0 5.0 4 15
+ 0.288 3 4 cbr 1000 ------- 4 3.0 5.3 11 21
- 0.288 3 4 cbr 1000 ------- 4 3.0 5.3 11 21
- 0.288544 4 5 tcp 1040 ------- 2 0.0 5.0 5 17
r 0.28968 4 5 cbr 1000 ------- 4 3.0 5.3 6 12
- 0.290208 4 5 tcp 1040 ------- 2 0.0 5.0 6 18
r 0.29208 3 4 cbr 1000 ------- 4 3.0 5.3 9 19
+ 0.29208 4 5 cbr 1000 ------- 4 3.0 5.3 9 19
- 0.29208 4 5 cbr 1000 ------- 4 3.0 5.3 9 19
+ 0.296 3 4 cbr 1000 ------- 4 3.0 5.3 12 22
- 0.296 3 4 cbr 1000 ------- 4 3.0 5.3 12 22
r 0.29768 4 5 cbr 1000 ------- 4 3.0 5.3 7 13
r 0.30008 3 4 cbr 1000 ------- 4 3.0 5.3 10 20
+ 0.30008 4 5 cbr 1000 ------- 4 3.0 5.3 10 20
- 0.30008 4 5 cbr 1000 ------- 4 3.0 5.3 10 20
+ 0.304 3 4 cbr 1000 ------- 4 3.0 5.3 13 23
- 0.304 3 4 cbr 1000 ------- 4 3.0 5.3 13 23
r 0.30528 4 5 tcp 1040 ------- 2 0.0 5.0 3 14
+ 0.30528 5 4 ack 40 ------- 2 5.0 0.0 3 24
- 0.30528 5 4 ack 40 ------- 2 5.0 0.0 3 24
r 0.30688 4 5 cbr 1000 ------- 4 3.0 5.3 8 16
r 0.30808 3 4 cbr 1000 ------- 4 3.0 5.3 11 21
+ 0.30808 4 5 cbr 1000 ------- 4 3.0 5.3 11 21
- 0.30808 4 5 cbr 1000 ------- 4 3.0 5.3 11 21
r 0.308544 4 5 tcp 1040 ------- 2 0.0 5.0 4 15
+ 0.308544 5 4 ack 40 ------- 2 5.0 0.0 4 25
- 0.308544 5 4 ack 40 ------- 2 5.0 0.0 4 25
r 0.310208 4 5 tcp 1040 ------- 2 0.0 5.0 5 17
+ 0.310208 5 4 ack 40 ------- 2 5.0 0.0 5 26
- 0.310208 5 4 ack 40 ------- 2 5.0 0.0 5 26
r 0.311872 4 5 tcp 1040 ------- 2 0.0 5.0 6 18
+ 0.311872 5 4 ack 40 ------- 2 5.0 0.0 6 27
- 0.311872 5 4 ack 40 ------- 2 5.0 0.0 6 27
+ 0.312 3 4 cbr 1000 ------- 4 3.0 5.3 14 28
- 0.312 3 4 cbr 1000 ------- 4 3.0 5.3 14 28
r 0.31368 4 5 cbr 1000 ------- 4 3.0 5.3 9 19
r 0.31608 3 4 cbr 1000 ------- 4 3.0 5.3 12 22
+ 0.31608 4 5 cbr 1000 ------- 4 3.0 5.3 12 22
- 0.31608 4 5 cbr 1000 ------- 4 3.0 5.3 12 22
+ 0.32 3 4 cbr 1000 ------- 4 3.0 5.3 15 29
- 0.32 3 4 cbr 1000 ------- 4 3.0 5.3 15 29
r 0.32168 4 5 cbr 1000 ------- 4 3.0 5.3 10 20
r 0.32408 3 4 cbr 1000 ------- 4 3.0 5.3 13 23
+ 0.32408 4 5 cbr 1000 ------- 4 3.0 5.3 13 23
- 0.32408 4 5 cbr 1000 ------- 4 3.0 5.3 13 23
r 0.325344 5 4 ack 40 ------- 2 5.0 0.0 3 24
+ 0.325344 4 0 ack 40 ------- 2 5.0 0.0 3 24
- 0.325344 4 0 ack 40 ------- 2 5.0 0.0 3 24
+ 0.328 3 4 cbr 1000 ------- 4 3.0 5.3 16 30
- 0.328 3 4 cbr 1000 ------- 4 3.0 5.3 16 30
r 0.328608 5 4 ack 40 ------- 2 5.0 0.0 4 25
+ 0.328608 4 0 ack 40 ------- 2 5.0 0.0 4 25
- 0.328608 4 0 ack 40 ------- 2 5.0 0.0 4 25
r 0.32968 4 5 cbr 1000 ------- 4 3.0 5.3 11 21
r 0.330272 5 4 ack 40 ------- 2 5.0 0.0 5 26
+ 0.330272 4 0 ack 40 ------- 2 5.0 0.0 5 26
- 0.330272 4 0 ack 40 ------- 2 5.0 0.0 5 26
r 0.331936 5 4 ack 40 ------- 2 5.0 0.0 6 27
+ 0.331936 4 0 ack 40 ------- 2 5.0 0.0 6 27
- 0.331936 4 0 ack 40 ------- 2 5.0 0.0 6 27
r 0.33208 3 4 cbr 1000 ------- 4 3.0 5.3 14 28
+ 0.33208 4 5 cbr 1000 ------- 4 3.0 5.3 14 28
- 0.33208 4 5 cbr 1000 ------- 4 3.0 5.3 14 28
+ 0.336 3 4 cbr 1000 ------- 4 3.0 5.3 17 31
- 0.336 3 4 cbr 1000 ------- 4 3.0 5.3 17 31
r 0.33768 4 5 cbr 1000 ------- 4 3.0 5.3 12 22
r 0.34008 3 4 cbr 1000 ------- 4 3.0 5.3 15 29
+ 0.34008 4 5 cbr 1000 ------- 4 3.0 5.3 15 29
- 0.34008 4 5 cbr 1000 ------- 4 3.0 5.3 15 29
+ 0.344 3 4 cbr 1000 ------- 4 3.0 5.3 18 32
- 0.344 3 4 cbr 1000 ------- 4 3.0 5.3 18 32
r 0.345376 4 0 ack 40 ------- 2 5.0 0.0 3 24
+ 0.345376 0 4 tcp 1040 ------- 2 0.0 5.0 7 33
- 0.345376 0 4 tcp 1040 ------- 2 0.0 5.0 7 33
+ 0.345376 0 4 tcp 1040 ------- 2 0.0 5.0 8 34
r 0.34568 4 5 cbr 1000 ------- 4 3.0 5.3 13 23
- 0.346208 0 4 tcp 1040 ------- 2 0.0 5.0 8 34
r 0.34808 3 4 cbr 1000 ------- 4 3.0 5.3 16 30
+ 0.34808 4 5 cbr 1000 ------- 4 3.0 5.3 16 30
- 0.34808 4 5 cbr 1000 ------- 4 3.0 5.3 16 30
r 0.34864 4 0 ack 40 ------- 2 5.0 0.0 4 25
+ 0.34864 0 4 tcp 1040 ------- 2 0.0 5.0 9 35
- 0.34864 0 4 tcp 1040 ------- 2 0.0 5.0 9 35
+ 0.34864 0 4 tcp 1040 ------- 2 0.0 5.0 10 36
- 0.349472 0 4 tcp 1040 ------- 2 0.0 5.0 10 36
r 0.350304 4 0 ack 40 ------- 2 5.0 0.0 5 26
+ 0.350304 0 4 tcp 1040 ------- 2 0.0 5.0 11 37
+ 0.350304 0 4 tcp 1040 ------- 2 0.0 5.0 12 38
- 0.350304 0 4 tcp 1040 ------- 2 0.0 5.0 11 37
- 0.351136 0 4 tcp 1040 ------- 2 0.0 5.0 12 38
r 0.351968 4 0 ack 40 ------- 2 5.0 0.0 6 27
+ 0.351968 0 4 tcp 1040 ------- 2 0.0 5.0 13 39
+ 0.351968 0 4 tcp 1040 ------- 2 0.0 5.0 14 40
- 0.351968 0 4 tcp 1040 ------- 2 0.0 5.0 13 39
+ 0.352 3 4 cbr 1000 ------- 4 3.0 5.3 19 41
- 0.352 3 4 cbr 1000 ------- 4 3.0 5.3 19 41
- 0.3528 0 4 tcp 1040 ------- 2 0.0 5.0 14 40
r 0.35368 4 5 cbr 1000 ------- 4 3.0 5.3 14 28
r 0.35608 3 4 cbr 1000 ------- 4 3.0 5.3 17 31
+ 0.35608 4 5 cbr 1000 ------- 4 3.0 5.3 17 31
- 0.35608 4 5 cbr 1000 ------- 4 3.0 5.3 17 31
+ 0.36 3 4 cbr 1000 ------- 4 3.0 5.3 20 42
- 0.36 3 4 cbr 1000 ------- 4 3.0 5.3 20 42
r 0.36168 4 5 cbr 1000 ------- 4 3.0 5.3 15 29
r 0.36408 3 4 cbr 1000 ------- 4 3.0 5.3 18 32
+ 0.36408 4 5 cbr 1000 ------- 4 3.0 5.3 18 32
- 0.36408 4 5 cbr 1000 ------- 4 3.0 5.3 18 32
r 0.366208 0 4 tcp 1040 ------- 2 0.0 5.0 7 33
+ 0.366208 4 5 tcp 1040 ------- 2 0.0 5.0 7 33
- 0.366208 4 5 tcp 1040 ------- 2 0.0 5.0 7 33
r 0.36704 0 4 tcp 1040 ------- 2 0.0 5.0 8 34
+ 0.36704 4 5 tcp 1040 ------- 2 0.0 5.0 8 34
- 0.367872 4 5 tcp 1040 ------- 2 0.0 5.0 8 34
+ 0.368 3 4 cbr 1000 ------- 4 3.0 5.3 21 43
- 0.368 3 4 cbr 1000 ------- 4 3.0 5.3 21 43
r 0.369472 0 4 tcp 1040 ------- 2 0.0 5.0 9 35
+ 0.369472 4 5 tcp 1040 ------- 2 0.0 5.0 9 35
- 0.369536 4 5 tcp 1040 ------- 2 0.0 5.0 9 35
r 0.36968 4 5 cbr 1000 ------- 4 3.0 5.3 16 30
r 0.370304 0 4 tcp 1040 ------- 2 0.0 5.0 10 36
+ 0.370304 4 5 tcp 1040 ------- 2 0.0 5.0 10 36
r 0.371136 0 4 tcp 1040 ------- 2 0.0 5.0 11 37
+ 0.371136 4 5 tcp 1040 ------- 2 0.0 5.0 11 37
- 0.3712 4 5 tcp 1040 ------- 2 0.0 5.0 10 36
r 0.371968 0 4 tcp 1040 ------- 2 0.0 5.0 12 38
+ 0.371968 4 5 tcp 1040 ------- 2 0.0 5.0 12 38
r 0.37208 3 4 cbr 1000 ------- 4 3.0 5.3 19 41
+ 0.37208 4 5 cbr 1000 ------- 4 3.0 5.3 19 41
r 0.3728 0 4 tcp 1040 ------- 2 0.0 5.0 13 39
+ 0.3728 4 5 tcp 1040 ------- 2 0.0 5.0 13 39
- 0.372864 4 5 tcp 1040 ------- 2 0.0 5.0 11 37
r 0.373632 0 4 tcp 1040 ------- 2 0.0 5.0 14 40
+ 0.373632 4 5 tcp 1040 ------- 2 0.0 5.0 14 40
- 0.374528 4 5 tcp 1040 ------- 2 0.0 5.0 12 38
+ 0.376 3 4 cbr 1000 ------- 4 3.0 5.3 22 44
- 0.376 3 4 cbr 1000 ------- 4 3.0 5.3 22 44
- 0.376192 4 5 cbr 1000 ------- 4 3.0 5.3 19 41
r 0.37768 4 5 cbr 1000 ------- 4 3.0 5.3 17 31
- 0.377792 4 5 tcp 1040 ------- 2 0.0 5.0 13 39
- 0.379456 4 5 tcp 1040 ------- 2 0.0 5.0 14 40
r 0.38008 3 4 cbr 1000 ------- 4 3.0 5.3 20 42
+ 0.38008 4 5 cbr 1000 ------- 4 3.0 5.3 20 42
- 0.38112 4 5 cbr 1000 ------- 4 3.0 5.3 20 42
+ 0.384 3 4 cbr 1000 ------- 4 3.0 5.3 23 45
- 0.384 3 4 cbr 1000 ------- 4 3.0 5.3 23 45
r 0.38568 4 5 cbr 1000 ------- 4 3.0 5.3 18 32
r 0.387872 4 5 tcp 1040 ------- 2 0.0 5.0 7 33
+ 0.387872 5 4 ack 40 ------- 2 5.0 0.0 7 46
- 0.387872 5 4 ack 40 ------- 2 5.0 0.0 7 46
r 0.38808 3 4 cbr 1000 ------- 4 3.0 5.3 21 43
+ 0.38808 4 5 cbr 1000 ------- 4 3.0 5.3 21 43
- 0.38808 4 5 cbr 1000 ------- 4 3.0 5.3 21 43
r 0.389536 4 5 tcp 1040 ------- 2 0.0 5.0 8 34
+ 0.389536 5 4 ack 40 ------- 2 5.0 0.0 8 47
- 0.389536 5 4 ack 40 ------- 2 5.0 0.0 8 47
r 0.3912 4 5 tcp 1040 ------- 2 0.0 5.0 9 35
+ 0.3912 5 4 ack 40 ------- 2 5.0 0.0 9 48
- 0.3912 5 4 ack 40 ------- 2 5.0 0.0 9 48
+ 0.392 3 4 cbr 1000 ------- 4 3.0 5.3 24 49
- 0.392 3 4 cbr 1000 ------- 4 3.0 5.3 24 49
r 0.392864 4 5 tcp 1040 ------- 2 0.0 5.0 10 36
+ 0.392864 5 4 ack 40 ------- 2 5.0 0.0 10 50
- 0.392864 5 4 ack 40 ------- 2 5.0 0.0 10 50
r 0.394528 4 5 tcp 1040 ------- 2 0.0 5.0 11 37
+ 0.394528 5 4 ack 40 ------- 2 5.0 0.0 11 51
- 0.394528 5 4 ack 40 ------- 2 5.0 0.0 11 51
r 0.39608 3 4 cbr 1000 ------- 4 3.0 5.3 22 44
+ 0.39608 4 5 cbr 1000 ------- 4 3.0 5.3 22 44
- 0.39608 4 5 cbr 1000 ------- 4 3.0 5.3 22 44
r 0.396192 4 5 tcp 1040 ------- 2 0.0 5.0 12 38
+ 0.396192 5 4 ack 40 ------- 2 5.0 0.0 12 52
- 0.396192 5 4 ack 40 ------- 2 5.0 0.0 12 52
r 0.397792 4 5 cbr 1000 ------- 4 3.0 5.3 19 41
r 0.399456 4 5 tcp 1040 ------- 2 0.0 5.0 13 39
+ 0.399456 5 4 ack 40 ------- 2 5.0 0.0 13 53
- 0.399456 5 4 ack 40 ------- 2 5.0 0.0 13 53
+ 0.4 3 4 cbr 1000 ------- 4 3.0 5.3 25 54
- 0.4 3 4 cbr 1000 ------- 4 3.0 5.3 25 54
r 0.40112 4 5 tcp 1040 ------- 2 0.0 5.0 14 40
+ 0.40112 5 4 ack 40 ------- 2 5.0 0.0 14 55
- 0.40112 5 4 ack 40 ------- 2 5.0 0.0 14 55
r 0.40272 4 5 cbr 1000 ------- 4 3.0 5.3 20 42
r 0.40408 3 4 cbr 1000 ------- 4 3.0 5.3 23 45
+ 0.40408 4 5 cbr 1000 ------- 4 3.0 5.3 23 45
- 0.40408 4 5 cbr 1000 ------- 4 3.0 5.3 23 45
r 0.407936 5 4 ack 40 ------- 2 5.0 0.0 7 46
+ 0.407936 4 0 ack 40 ------- 2 5.0 0.0 7 46
- 0.407936 4 0 ack 40 ------- 2 5.0 0.0 7 46
+ 0.408 3 4 cbr 1000 ------- 4 3.0 5.3 26 56
- 0.408 3 4 cbr 1000 ------- 4 3.0 5.3 26 56
r 0.4096 5 4 ack 40 ------- 2 5.0 0.0 8 47
+ 0.4096 4 0 ack 40 ------- 2 5.0 0.0 8 47
- 0.4096 4 0 ack 40 ------- 2 5.0 0.0 8 47
r 0.40968 4 5 cbr 1000 ------- 4 3.0 5.3 21 43
r 0.411264 5 4 ack 40 ------- 2 5.0 0.0 9 48
+ 0.411264 4 0 ack 40 ------- 2 5.0 0.0 9 48
- 0.411264 4 0 ack 40 ------- 2 5.0 0.0 9 48
r 0.41208 3 4 cbr 1000 ------- 4 3.0 5.3 24 49
+ 0.41208 4 5 cbr 1000 ------- 4 3.0 5.3 24 49
- 0.41208 4 5 cbr 1000 ------- 4 3.0 5.3 24 49
r 0.412928 5 4 ack 40 ------- 2 5.0 0.0 10 50
+ 0.412928 4 0 ack 40 ------- 2 5.0 0.0 10 50
- 0.412928 4 0 ack 40 ------- 2 5.0 0.0 10 50
r 0.414592 5 4 ack 40 ------- 2 5.0 0.0 11 51
+ 0.414592 4 0 ack 40 ------- 2 5.0 0.0 11 51
- 0.414592 4 0 ack 40 ------- 2 5.0 0.0 11 51
+ 0.416 3 4 cbr 1000 ------- 4 3.0 5.3 27 57
- 0.416 3 4 cbr 1000 ------- 4 3.0 5.3 27 57
r 0.416256 5 4 ack 40 ------- 2 5.0 0.0 12 52
+ 0.416256 4 0 ack 40 ------- 2 5.0 0.0 12 52
- 0.416256 4 0 ack 40 ------- 2 5.0 0.0 12 52
r 0.41768 4 5 cbr 1000 ------- 4 3.0 5.3 22 44
r 0.41952 5 4 ack 40 ------- 2 5.0 0.0 13 53
+ 0.41952 4 0 ack 40 ------- 2 5.0 0.0 13 53
- 0.41952 4 0 ack 40 ------- 2 5.0 0.0 13 53
r 0.42008 3 4 cbr 1000 ------- 4 3.0 5.3 25 54
+ 0.42008 4 5 cbr 1000 ------- 4 3.0 5.3 25 54
- 0.42008 4 5 cbr 1000 ------- 4 3.0 5.3 25 54
r 0.421184 5 4 ack 40 ------- 2 5.0 0.0 14 55
+ 0.421184 4 0 ack 40 ------- 2 5.0 0.0 14 55
- 0.421184 4 0 ack 40 ------- 2 5.0 0.0 14 55
+ 0.424 3 4 cbr 1000 ------- 4 3.0 5.3 28 58
- 0.424 3 4 cbr 1000 ------- 4 3.0 5.3 28 58
r 0.42568 4 5 cbr 1000 ------- 4 3.0 5.3 23 45
r 0.427968 4 0 ack 40 ------- 2 5.0 0.0 7 46
+ 0.427968 0 4 tcp 1040 ------- 2 0.0 5.0 15 59
- 0.427968 0 4 tcp 1040 ------- 2 0.0 5.0 15 59
+ 0.427968 0 4 tcp 1040 ------- 2 0.0 5.0 16 60
r 0.42808 3 4 cbr 1000 ------- 4 3.0 5.3 26 56
+ 0.42808 4 5 cbr 1000 ------- 4 3.0 5.3 26 56
- 0.42808 4 5 cbr 1000 ------- 4 3.0 5.3 26 56
- 0.4288 0 4 tcp 1040 ------- 2 0.0 5.0 16 60
r 0.429632 4 0 ack 40 ------- 2 5.0 0.0 8 47
+ 0.429632 0 4 tcp 1040 ------- 2 0.0 5.0 17 61
+ 0.429632 0 4 tcp 1040 ------- 2 0.0 5.0 18 62
- 0.429632 0 4 tcp 1040 ------- 2 0.0 5.0 17 61
- 0.430464 0 4 tcp 1040 ------- 2 0.0 5.0 18 62
r 0.431296 4 0 ack 40 ------- 2 5.0 0.0 9 48
+ 0.431296 0 4 tcp 1040 ------- 2 0.0 5.0 19 63
+ 0.431296 0 4 tcp 1040 ------- 2 0.0 5.0 20 64
- 0.431296 0 4 tcp 1040 ------- 2 0.0 5.0 19 63
+ 0.432 3 4 cbr 1000 ------- 4 3.0 5.3 29 65
- 0.432 3 4 cbr 1000 ------- 4 3.0 5.3 29 65
- 0.432128 0 4 tcp 1040 ------- 2 0.0 5.0 20 64
r 0.43296 4 0 ack 40 ------- 2 5.0 0.0 10 50
+ 0.43296 0 4 tcp 1040 ------- 2 0.0 5.0 21 66
+ 0.43296 0 4 tcp 1040 ------- 2 0.0 5.0 22 67
- 0.43296 0 4 tcp 1040 ------- 2 0.0 5.0 21 66
r 0.43368 4 5 cbr 1000 ------- 4 3.0 5.3 24 49
- 0.433792 0 4 tcp 1040 ------- 2 0.0 5.0 22 67
r 0.434624 4 0 ack 40 ------- 2 5.0 0.0 11 51
+ 0.434624 0 4 tcp 1040 ------- 2 0.0 5.0 23 68
+ 0.434624 0 4 tcp 1040 ------- 2 0.0 5.0 24 69
- 0.434624 0 4 tcp 1040 ------- 2 0.0 5.0 23 68
- 0.435456 0 4 tcp 1040 ------- 2 0.0 5.0 24 69
r 0.43608 3 4 cbr 1000 ------- 4 3.0 5.3 27 57
+ 0.43608 4 5 cbr 1000 ------- 4 3.0 5.3 27 57
- 0.43608 4 5 cbr 1000 ------- 4 3.0 5.3 27 57
r 0.436288 4 0 ack 40 ------- 2 5.0 0.0 12 52
+ 0.436288 0 4 tcp 1040 ------- 2 0.0 5.0 25 70
+ 0.436288 0 4 tcp 1040 ------- 2 0.0 5.0 26 71
- 0.436288 0 4 tcp 1040 ------- 2 0.0 5.0 25 70
- 0.43712 0 4 tcp 1040 ------- 2 0.0 5.0 26 71
r 0.439552 4 0 ack 40 ------- 2 5.0 0.0 13 53
+ 0.439552 0 4 tcp 1040 ------- 2 0.0 5.0 27 72
- 0.439552 0 4 tcp 1040 ------- 2 0.0 5.0 27 72
+ 0.439552 0 4 tcp 1040 ------- 2 0.0 5.0 28 73
+ 0.44 3 4 cbr 1000 ------- 4 3.0 5.3 30 74
- 0.44 3 4 cbr 1000 ------- 4 3.0 5.3 30 74
- 0.440384 0 4 tcp 1040 ------- 2 0.0 5.0 28 73
r 0.441216 4 0 ack 40 ------- 2 5.0 0.0 14 55
+ 0.441216 0 4 tcp 1040 ------- 2 0.0 5.0 29 75
+ 0.441216 0 4 tcp 1040 ------- 2 0.0 5.0 30 76
- 0.441216 0 4 tcp 1040 ------- 2 0.0 5.0 29 75
r 0.44168 4 5 cbr 1000 ------- 4 3.0 5.3 25 54
- 0.442048 0 4 tcp 1040 ------- 2 0.0 5.0 30 76
r 0.44408 3 4 cbr 1000 ------- 4 3.0 5.3 28 58
+ 0.44408 4 5 cbr 1000 ------- 4 3.0 5.3 28 58
- 0.44408 4 5 cbr 1000 ------- 4 3.0 5.3 28 58
+ 0.448 3 4 cbr 1000 ------- 4 3.0 5.3 31 77
- 0.448 3 4 cbr 1000 ------- 4 3.0 5.3 31 77
r 0.4488 0 4 tcp 1040 ------- 2 0.0 5.0 15 59
+ 0.4488 4 5 tcp 1040 ------- 2 0.0 5.0 15 59
- 0.4488 4 5 tcp 1040 ------- 2 0.0 5.0 15 59
r 0.449632 0 4 tcp 1040 ------- 2 0.0 5.0 16 60
+ 0.449632 4 5 tcp 1040 ------- 2 0.0 5.0 16 60
r 0.44968 4 5 cbr 1000 ------- 4 3.0 5.3 26 56
r 0.450464 0 4 tcp 1040 ------- 2 0.0 5.0 17 61
+ 0.450464 4 5 tcp 1040 ------- 2 0.0 5.0 17 61
- 0.450464 4 5 tcp 1040 ------- 2 0.0 5.0 16 60
r 0.451296 0 4 tcp 1040 ------- 2 0.0 5.0 18 62
+ 0.451296 4 5 tcp 1040 ------- 2 0.0 5.0 18 62
r 0.45208 3 4 cbr 1000 ------- 4 3.0 5.3 29 65
+ 0.45208 4 5 cbr 1000 ------- 4 3.0 5.3 29 65
r 0.452128 0 4 tcp 1040 ------- 2 0.0 5.0 19 63
+ 0.452128 4 5 tcp 1040 ------- 2 0.0 5.0 19 63
- 0.452128 4 5 tcp 1040 ------- 2 0.0 5.0 17 61
r 0.45296 0 4 tcp 1040 ------- 2 0.0 5.0 20 64
+ 0.45296 4 5 tcp 1040 ------- 2 0.0 5.0 20 64
r 0.453792 0 4 tcp 1040 ------- 2 0.0 5.0 21 66
+ 0.453792 4 5 tcp 1040 ------- 2 0.0 5.0 21 66
- 0.453792 4 5 tcp 1040 ------- 2 0.0 5.0 18 62
r 0.454624 0 4 tcp 1040 ------- 2 0.0 5.0 22 67
+ 0.454624 4 5 tcp 1040 ------- 2 0.0 5.0 22 67
r 0.455456 0 4 tcp 1040 ------- 2 0.0 5.0 23 68
+ 0.455456 4 5 tcp 1040 ------- 2 0.0 5.0 23 68
d 0.455456 4 5 tcp 1040 ------- 2 0.0 5.0 23 68
- 0.455456 4 5 cbr 1000 ------- 4 3.0 5.3 29 65
+ 0.456 3 4 cbr 1000 ------- 4 3.0 5.3 32 78
- 0.456 3 4 cbr 1000 ------- 4 3.0 5.3 32 78
r 0.456288 0 4 tcp 1040 ------- 2 0.0 5.0 24 69
+ 0.456288 4 5 tcp 1040 ------- 2 0.0 5.0 24 69
- 0.457056 4 5 tcp 1040 ------- 2 0.0 5.0 19 63
r 0.45712 0 4 tcp 1040 ------- 2 0.0 5.0 25 70
+ 0.45712 4 5 tcp 1040 ------- 2 0.0 5.0 25 70
r 0.45768 4 5 cbr 1000 ------- 4 3.0 5.3 27 57
r 0.457952 0 4 tcp 1040 ------- 2 0.0 5.0 26 71
+ 0.457952 4 5 tcp 1040 ------- 2 0.0 5.0 26 71
d 0.457952 4 5 tcp 1040 ------- 2 0.0 5.0 26 71
- 0.45872 4 5 tcp 1040 ------- 2 0.0 5.0 20 64
r 0.46008 3 4 cbr 1000 ------- 4 3.0 5.3 30 74
+ 0.46008 4 5 cbr 1000 ------- 4 3.0 5.3 30 74
r 0.460384 0 4 tcp 1040 ------- 2 0.0 5.0 27 72
+ 0.460384 4 5 tcp 1040 ------- 2 0.0 5.0 27 72
d 0.460384 4 5 tcp 1040 ------- 2 0.0 5.0 27 72
- 0.460384 4 5 tcp 1040 ------- 2 0.0 5.0 21 66
r 0.461216 0 4 tcp 1040 ------- 2 0.0 5.0 28 73
+ 0.461216 4 5 tcp 1040 ------- 2 0.0 5.0 28 73
r 0.462048 0 4 tcp 1040 ------- 2 0.0 5.0 29 75
+ 0.462048 4 5 tcp 1040 ------- 2 0.0 5.0 29 75
d 0.462048 4 5 tcp 1040 ------- 2 0.0 5.0 29 75
- 0.462048 4 5 tcp 1040 ------- 2 0.0 5.0 22 67
r 0.46288 0 4 tcp 1040 ------- 2 0.0 5.0 30 76
+ 0.46288 4 5 tcp 1040 ------- 2 0.0 5.0 30 76
- 0.463712 4 5 tcp 1040 ------- 2 0.0 5.0 24 69
+ 0.464 3 4 cbr 1000 ------- 4 3.0 5.3 33 79
- 0.464 3 4 cbr 1000 ------- 4 3.0 5.3 33 79
- 0.465376 4 5 tcp 1040 ------- 2 0.0 5.0 25 70
r 0.46568 4 5 cbr 1000 ------- 4 3.0 5.3 28 58
- 0.46704 4 5 cbr 1000 ------- 4 3.0 5.3 30 74
r 0.46808 3 4 cbr 1000 ------- 4 3.0 5.3 31 77
+ 0.46808 4 5 cbr 1000 ------- 4 3.0 5.3 31 77
- 0.46864 4 5 tcp 1040 ------- 2 0.0 5.0 28 73
- 0.470304 4 5 tcp 1040 ------- 2 0.0 5.0 30 76
r 0.470464 4 5 tcp 1040 ------- 2 0.0 5.0 15 59
+ 0.470464 5 4 ack 40 ------- 2 5.0 0.0 15 80
- 0.470464 5 4 ack 40 ------- 2 5.0 0.0 15 80
- 0.471968 4 5 cbr 1000 ------- 4 3.0 5.3 31 77
+ 0.472 3 4 cbr 1000 ------- 4 3.0 5.3 34 81
- 0.472 3 4 cbr 1000 ------- 4 3.0 5.3 34 81
r 0.472128 4 5 tcp 1040 ------- 2 0.0 5.0 16 60
+ 0.472128 5 4 ack 40 ------- 2 5.0 0.0 16 82
- 0.472128 5 4 ack 40 ------- 2 5.0 0.0 16 82
r 0.473792 4 5 tcp 1040 ------- 2 0.0 5.0 17 61
+ 0.473792 5 4 ack 40 ------- 2 5.0 0.0 17 83
- 0.473792 5 4 ack 40 ------- 2 5.0 0.0 17 83
r 0.475456 4 5 tcp 1040 ------- 2 0.0 5.0 18 62
+ 0.475456 5 4 ack 40 ------- 2 5.0 0.0 18 84
- 0.475456 5 4 ack 40 ------- 2 5.0 0.0 18 84
r 0.47608 3 4 cbr 1000 ------- 4 3.0 5.3 32 78
+ 0.47608 4 5 cbr 1000 ------- 4 3.0 5.3 32 78
- 0.47608 4 5 cbr 1000 ------- 4 3.0 5.3 32 78
r 0.477056 4 5 cbr 1000 ------- 4 3.0 5.3 29 65
r 0.47872 4 5 tcp 1040 ------- 2 0.0 5.0 19 63
+ 0.47872 5 4 ack 40 ------- 2 5.0 0.0 19 85
- 0.47872 5 4 ack 40 ------- 2 5.0 0.0 19 85
+ 0.48 3 4 cbr 1000 ------- 4 3.0 5.3 35 86
- 0.48 3 4 cbr 1000 ------- 4 3.0 5.3 35 86
r 0.480384 4 5 tcp 1040 ------- 2 0.0 5.0 20 64
+ 0.480384 5 4 ack 40 ------- 2 5.0 0.0 20 87
- 0.480384 5 4 ack 40 ------- 2 5.0 0.0 20 87
r 0.482048 4 5 tcp 1040 ------- 2 0.0 5.0 21 66
+ 0.482048 5 4 ack 40 ------- 2 5.0 0.0 21 88
- 0.482048 5 4 ack 40 ------- 2 5.0 0.0 21 88
r 0.483712 4 5 tcp 1040 ------- 2 0.0 5.0 22 67
+ 0.483712 5 4 ack 40 ------- 2 5.0 0.0 22 89
- 0.483712 5 4 ack 40 ------- 2 5.0 0.0 22 89
r 0.48408 3 4 cbr 1000 ------- 4 3.0 5.3 33 79
+ 0.48408 4 5 cbr 1000 ------- 4 3.0 5.3 33 79
- 0.48408 4 5 cbr 1000 ------- 4 3.0 5.3 33 79
r 0.485376 4 5 tcp 1040 ------- 2 0.0 5.0 24 69
+ 0.485376 5 4 ack 40 ------- 2 5.0 0.0 22 90
- 0.485376 5 4 ack 40 ------- 2 5.0 0.0 22 90
r 0.48704 4 5 tcp 1040 ------- 2 0.0 5.0 25 70
+ 0.48704 5 4 ack 40 ------- 2 5.0 0.0 22 91
- 0.48704 5 4 ack 40 ------- 2 5.0 0.0 22 91
+ 0.488 3 4 cbr 1000 ------- 4 3.0 5.3 36 92
- 0.488 3 4 cbr 1000 ------- 4 3.0 5.3 36 92
r 0.48864 4 5 cbr 1000 ------- 4 3.0 5.3 30 74
r 0.490304 4 5 tcp 1040 ------- 2 0.0 5.0 28 73
+ 0.490304 5 4 ack 40 ------- 2 5.0 0.0 22 93
- 0.490304 5 4 ack 40 ------- 2 5.0 0.0 22 93
r 0.490528 5 4 ack 40 ------- 2 5.0 0.0 15 80
+ 0.490528 4 0 ack 40 ------- 2 5.0 0.0 15 80
- 0.490528 4 0 ack 40 ------- 2 5.0 0.0 15 80
r 0.491968 4 5 tcp 1040 ------- 2 0.0 5.0 30 76
+ 0.491968 5 4 ack 40 ------- 2 5.0 0.0 22 94
- 0.491968 5 4 ack 40 ------- 2 5.0 0.0 22 94
r 0.49208 3 4 cbr 1000 ------- 4 3.0 5.3 34 81
+ 0.49208 4 5 cbr 1000 ------- 4 3.0 5.3 34 81
- 0.49208 4 5 cbr 1000 ------- 4 3.0 5.3 34 81
r 0.492192 5 4 ack 40 ------- 2 5.0 0.0 16 82
+ 0.492192 4 0 ack 40 ------- 2 5.0 0.0 16 82
- 0.492192 4 0 ack 40 ------- 2 5.0 0.0 16 82
r 0.493568 4 5 cbr 1000 ------- 4 3.0 5.3 31 77
r 0.493856 5 4 ack 40 ------- 2 5.0 0.0 17 83
+ 0.493856 4 0 ack 40 ------- 2 5.0 0.0 17 83
- 0.493856 4 0 ack 40 ------- 2 5.0 0.0 17 83
r 0.49552 5 4 ack 40 ------- 2 5.0 0.0 18 84
+ 0.49552 4 0 ack 40 ------- 2 5.0 0.0 18 84
- 0.49552 4 0 ack 40 ------- 2 5.0 0.0 18 84
+ 0.496 3 4 cbr 1000 ------- 4 3.0 5.3 37 95
- 0.496 3 4 cbr 1000 ------- 4 3.0 5.3 37 95
r 0.49768 4 5 cbr 1000 ------- 4 3.0 5.3 32 78
r 0.498784 5 4 ack 40 ------- 2 5.0 0.0 19 85
+ 0.498784 4 0 ack 40 ------- 2 5.0 0.0 19 85
- 0.498784 4 0 ack 40 ------- 2 5.0 0.0 19 85
r 0.50008 3 4 cbr 1000 ------- 4 3.0 5.3 35 86
+ 0.50008 4 5 cbr 1000 ------- 4 3.0 5.3 35 86
- 0.50008 4 5 cbr 1000 ------- 4 3.0 5.3 35 86
r 0.500448 5 4 ack 40 ------- 2 5.0 0.0 20 87
+ 0.500448 4 0 ack 40 ------- 2 5.0 0.0 20 87
- 0.500448 4 0 ack 40 ------- 2 5.0 0.0 20 87
r 0.502112 5 4 ack 40 ------- 2 5.0 0.0 21 88
+ 0.502112 4 0 ack 40 ------- 2 5.0 0.0 21 88
- 0.502112 4 0 ack 40 ------- 2 5.0 0.0 21 88
r 0.503776 5 4 ack 40 ------- 2 5.0 0.0 22 89
+ 0.503776 4 0 ack 40 ------- 2 5.0 0.0 22 89
- 0.503776 4 0 ack 40 ------- 2 5.0 0.0 22 89
+ 0.504 3 4 cbr 1000 ------- 4 3.0 5.3 38 96
- 0.504 3 4 cbr 1000 ------- 4 3.0 5.3 38 96
r 0.50544 5 4 ack 40 ------- 2 5.0 0.0 22 90
+ 0.50544 4 0 ack 40 ------- 2 5.0 0.0 22 90
- 0.50544 4 0 ack 40 ------- 2 5.0 0.0 22 90
r 0.50568 4 5 cbr 1000 ------- 4 3.0 5.3 33 79
r 0.507104 5 4 ack 40 ------- 2 5.0 0.0 22 91
+ 0.507104 4 0 ack 40 ------- 2 5.0 0.0 22 91
- 0.507104 4 0 ack 40 ------- 2 5.0 0.0 22 91
r 0.50808 3 4 cbr 1000 ------- 4 3.0 5.3 36 92
+ 0.50808 4 5 cbr 1000 ------- 4 3.0 5.3 36 92
- 0.50808 4 5 cbr 1000 ------- 4 3.0 5.3 36 92
r 0.510368 5 4 ack 40 ------- 2 5.0 0.0 22 93
+ 0.510368 4 0 ack 40 ------- 2 5.0 0.0 22 93
- 0.510368 4 0 ack 40 ------- 2 5.0 0.0 22 93
r 0.51056 4 0 ack 40 ------- 2 5.0 0.0 15 80
+ 0.51056 0 4 tcp 1040 ------- 2 0.0 5.0 31 97
- 0.51056 0 4 tcp 1040 ------- 2 0.0 5.0 31 97
+ 0.51056 0 4 tcp 1040 ------- 2 0.0 5.0 32 98
- 0.511392 0 4 tcp 1040 ------- 2 0.0 5.0 32 98
+ 0.512 3 4 cbr 1000 ------- 4 3.0 5.3 39 99
- 0.512 3 4 cbr 1000 ------- 4 3.0 5.3 39 99
r 0.512032 5 4 ack 40 ------- 2 5.0 0.0 22 94
+ 0.512032 4 0 ack 40 ------- 2 5.0 0.0 22 94
- 0.512032 4 0 ack 40 ------- 2 5.0 0.0 22 94
r 0.512224 4 0 ack 40 ------- 2 5.0 0.0 16 82
+ 0.512224 0 4 tcp 1040 ------- 2 0.0 5.0 33 100
+ 0.512224 0 4 tcp 1040 ------- 2 0.0 5.0 34 101
- 0.512224 0 4 tcp 1040 ------- 2 0.0 5.0 33 100
- 0.513056 0 4 tcp 1040 ------- 2 0.0 5.0 34 101
r 0.51368 4 5 cbr 1000 ------- 4 3.0 5.3 34 81
r 0.513888 4 0 ack 40 ------- 2 5.0 0.0 17 83
+ 0.513888 0 4 tcp 1040 ------- 2 0.0 5.0 35 102
+ 0.513888 0 4 tcp 1040 ------- 2 0.0 5.0 36 103
- 0.513888 0 4 tcp 1040 ------- 2 0.0 5.0 35 102
- 0.51472 0 4 tcp 1040 ------- 2 0.0 5.0 36 103
r 0.515552 4 0 ack 40 ------- 2 5.0 0.0 18 84
+ 0.515552 0 4 tcp 1040 ------- 2 0.0 5.0 37 104
+ 0.515552 0 4 tcp 1040 ------- 2 0.0 5.0 38 105
- 0.515552 0 4 tcp 1040 ------- 2 0.0 5.0 37 104
r 0.51608 3 4 cbr 1000 ------- 4 3.0 5.3 37 95
+ 0.51608 4 5 cbr 1000 ------- 4 3.0 5.3 37 95
- 0.51608 4 5 cbr 1000 ------- 4 3.0 5.3 37 95
- 0.516384 0 4 tcp 1040 ------- 2 0.0 5.0 38 105
r 0.518816 4 0 ack 40 ------- 2 5.0 0.0 19 85
+ 0.518816 0 4 tcp 1040 ------- 2 0.0 5.0 39 106
- 0.518816 0 4 tcp 1040 ------- 2 0.0 5.0 39 106
+ 0.52 3 4 cbr 1000 ------- 4 3.0 5.3 40 107
- 0.52 3 4 cbr 1000 ------- 4 3.0 5.3 40 107
r 0.52048 4 0 ack 40 ------- 2 5.0 0.0 20 87
+ 0.52048 0 4 tcp 1040 ------- 2 0.0 5.0 40 108
- 0.52048 0 4 tcp 1040 ------- 2 0.0 5.0 40 108
r 0.52168 4 5 cbr 1000 ------- 4 3.0 5.3 35 86
r 0.522144 4 0 ack 40 ------- 2 5.0 0.0 21 88
+ 0.522144 0 4 tcp 1040 ------- 2 0.0 5.0 41 109
- 0.522144 0 4 tcp 1040 ------- 2 0.0 5.0 41 109
r 0.523808 4 0 ack 40 ------- 2 5.0 0.0 22 89
+ 0.523808 0 4 tcp 1040 ------- 2 0.0 5.0 42 110
- 0.523808 0 4 tcp 1040 ------- 2 0.0 5.0 42 110
r 0.52408 3 4 cbr 1000 ------- 4 3.0 5.3 38 96
+ 0.52408 4 5 cbr 1000 ------- 4 3.0 5.3 38 96
- 0.52408 4 5 cbr 1000 ------- 4 3.0 5.3 38 96
r 0.525472 4 0 ack 40 ------- 2 5.0 0.0 22 90
r 0.527136 4 0 ack 40 ------- 2 5.0 0.0 22 91
+ 0.528 3 4 cbr 1000 ------- 4 3.0 5.3 41 111
- 0.528 3 4 cbr 1000 ------- 4 3.0 5.3 41 111
r 0.52968 4 5 cbr 1000 ------- 4 3.0 5.3 36 92
r 0.5304 4 0 ack 40 ------- 2 5.0 0.0 22 93
+ 0.5304 0 4 tcp 1040 ---A--- 2 0.0 5.0 23 112
- 0.5304 0 4 tcp 1040 ---A--- 2 0.0 5.0 23 112
r 0.531392 0 4 tcp 1040 ------- 2 0.0 5.0 31 97
+ 0.531392 4 5 tcp 1040 ------- 2 0.0 5.0 31 97
- 0.531392 4 5 tcp 1040 ------- 2 0.0 5.0 31 97
r 0.532064 4 0 ack 40 ------- 2 5.0 0.0 22 94
r 0.53208 3 4 cbr 1000 ------- 4 3.0 5.3 39 99
+ 0.53208 4 5 cbr 1000 ------- 4 3.0 5.3 39 99
r 0.532224 0 4 tcp 1040 ------- 2 0.0 5.0 32 98
+ 0.532224 4 5 tcp 1040 ------- 2 0.0 5.0 32 98
- 0.533056 4 5 cbr 1000 ------- 4 3.0 5.3 39 99
r 0.533056 0 4 tcp 1040 ------- 2 0.0 5.0 33 100
+ 0.533056 4 5 tcp 1040 ------- 2 0.0 5.0 33 100
r 0.533888 0 4 tcp 1040 ------- 2 0.0 5.0 34 101
+ 0.533888 4 5 tcp 1040 ------- 2 0.0 5.0 34 101
- 0.534656 4 5 tcp 1040 ------- 2 0.0 5.0 32 98
r 0.53472 0 4 tcp 1040 ------- 2 0.0 5.0 35 102
+ 0.53472 4 5 tcp 1040 ------- 2 0.0 5.0 35 102
r 0.535552 0 4 tcp 1040 ------- 2 0.0 5.0 36 103
+ 0.535552 4 5 tcp 1040 ------- 2 0.0 5.0 36 103
+ 0.536 3 4 cbr 1000 ------- 4 3.0 5.3 42 113
- 0.536 3 4 cbr 1000 ------- 4 3.0 5.3 42 113
- 0.53632 4 5 tcp 1040 ------- 2 0.0 5.0 33 100
r 0.536384 0 4 tcp 1040 ------- 2 0.0 5.0 37 104
+ 0.536384 4 5 tcp 1040 ------- 2 0.0 5.0 37 104
r 0.537216 0 4 tcp 1040 ------- 2 0.0 5.0 38 105
+ 0.537216 4 5 tcp 1040 ------- 2 0.0 5.0 38 105
r 0.53768 4 5 cbr 1000 ------- 4 3.0 5.3 37 95
- 0.537984 4 5 tcp 1040 ------- 2 0.0 5.0 34 101
r 0.539648 0 4 tcp 1040 ------- 2 0.0 5.0 39 106
+ 0.539648 4 5 tcp 1040 ------- 2 0.0 5.0 39 106
- 0.539648 4 5 tcp 1040 ------- 2 0.0 5.0 35 102
r 0.54008 3 4 cbr 1000 ------- 4 3.0 5.3 40 107
+ 0.54008 4 5 cbr 1000 ------- 4 3.0 5.3 40 107
r 0.541312 0 4 tcp 1040 ------- 2 0.0 5.0 40 108
+ 0.541312 4 5 tcp 1040 ------- 2 0.0 5.0 40 108
d 0.541312 4 5 tcp 1040 ------- 2 0.0 5.0 40 108
- 0.541312 4 5 tcp 1040 ------- 2 0.0 5.0 36 103
r 0.542976 0 4 tcp 1040 ------- 2 0.0 5.0 41 109
+ 0.542976 4 5 tcp 1040 ------- 2 0.0 5.0 41 109
- 0.542976 4 5 tcp 1040 ------- 2 0.0 5.0 37 104
+ 0.544 3 4 cbr 1000 ------- 4 3.0 5.3 43 114