V -t * -v 1.0a5 -a 0
A -t * -n 1 -p 0 -o 0x7fffffff -c 30 -a 1
A -t * -h 1 -m 1073741823 -s 0
c -t * -i 4 -n black
c -t * -i 1 -n blue
c -t * -i 2 -n red
c -t * -i 3 -n green
n -t * -a 4 -s 4 -S UP -v circle -c black -i black
n -t * -a 0 -s 0 -S UP -v circle -c black -i black
n -t * -a 5 -s 5 -S UP -v circle -c black -i black
n -t * -a 1 -s 1 -S UP -v circle -c black -i black
n -t * -a 2 -s 2 -S UP -v circle -c black -i black
n -t * -a 3 -s 3 -S UP -v circle -c black -i black
l -t * -s 0 -d 4 -S UP -r 10000000 -D 0.02 -c black -o 315deg
l -t * -s 1 -d 4 -S UP -r 10000000 -D 0.02 -c black -o 345deg
l -t * -s 2 -d 4 -S UP -r 10000000 -D 0.02 -c black -o 15deg
l -t * -s 3 -d 4 -S UP -r 100000000 -D 0.02 -c black -o 45deg
l -t * -s 4 -d 5 -S UP -r 5000000 -D 0.02 -c black -o right
q -t * -s 5 -d 4 -a 0.5
q -t * -s 4 -d 5 -a 0.5
+ -t 0.1 -s 0 -d 4 -p tcp -e 40 -c 2 -i 0 -a 2 -x {0.0 5.0 0 ------- null}
- -t 0.1 -s 0 -d 4 -p tcp -e 40 -c 2 -i 0 -a 2 -x {0.0 5.0 0 ------- null}
h -t 0.1 -s 0 -d 4 -p tcp -e 40 -c 2 -i 0 -a 2 -x {0.0 5.0 -1 ------- null}
r -t 0.120032 -s 0 -d 4 -p tcp -e 40 -c 2 -i 0 -a 2 -x {0.0 5.0 0 ------- null}
+ -t 0.120032 -s 4 -d 5 -p tcp -e 40 -c 2 -i 0 -a 2 -x {0.0 5.0 0 ------- null}
- -t 0.120032 -s 4 -d 5 -p tcp -e 40 -c 2 -i 0 -a 2 -x {0.0 5.0 0 ------- null}
h -t 0.120032 -s 4 -d 5 -p tcp -e 40 -c 2 -i 0 -a 2 -x {0.0 5.0 -1 ------- null}
r -t 0.140096 -s 4 -d 5 -p tcp -e 40 -c 2 -i 0 -a 2 -x {0.0 5.0 0 ------- null}
+ -t 0.140096 -s 5 -d 4 -p ack -e 40 -c 2 -i 1 -a 2 -x {5.0 0.0 0 ------- null}
- -t 0.140096 -s 5 -d 4 -p ack -e 40 -c 2 -i 1 -a 2 -x {5.0 0.0 0 ------- null}
h -t 0.140096 -s 5 -d 4 -p ack -e 40 -c 2 -i 1 -a 2 -x {5.0 0.0 -1 ------- null}
r -t 0.16016 -s 5 -d 4 -p ack -e 40 -c 2 -i 1 -a 2 -x {5.0 0.0 0 ------- null}
+ -t 0.16016 -s 4 -d 0 -p ack -e 40 -c 2 -i 1 -a 2 -x {5.0 0.0 0 ------- null}
- -t 0.16016 -s 4 -d 0 -p ack -e 40 -c 2 -i 1 -a 2 -x {5.0 0.0 0 ------- null}
h -t 0.16016 -s 4 -d 0 -p ack -e 40 -c 2 -i 1 -a 2 -x {5.0 0.0 -1 ------- null}
r -t 0.180192 -s 4 -d 0 -p ack -e 40 -c 2 -i 1 -a 2 -x {5.0 0.0 0 ------- null}
+ -t 0.180192 -s 0 -d 4 -p tcp -e 1040 -c 2 -i 2 -a 2 -x {0.0 5.0 1 ------- null}
- -t 0.180192 -s 0 -d 4 -p tcp -e 1040 -c 2 -i 2 -a 2 -x {0.0 5.0 1 ------- null}
h -t 0.180192 -s 0 -d 4 -p tcp -e 1040 -c 2 -i 2 -a 2 -x {0.0 5.0 -1 ------- null}
+ -t 0.180192 -s 0 -d 4 -p tcp -e 1040 -c 2 -i 3 -a 2 -x {0.0 5.0 2 ------- null}
- -t 0.181024 -s 0 -d 4 -p tcp -e 1040 -c 2 -i 3 -a 2 -x {0.0 5.0 2 ------- null}
h -t 0.181024 -s 0 -d 4 -p tcp -e 1040 -c 2 -i 3 -a 2 -x {0.0 5.0 -1 ------- null}
+ -t 0.2 -s 3 -d 4 -p cbr -e 1000 -c 4 -i 4 -a 4 -x {3.0 5.3 0 ------- null}
- -t 0.2 -s 3 -d 4 -p cbr -e 1000 -c 4 -i 4 -a 4 -x {3.0 5.3 0 ------- null}
h -t 0.2 -s 3 -d 4 -p cbr -e 1000 -c 4 -i 4 -a 4 -x {3.0 5.3 -1 ------- null}
r -t 0.201024 -s 0 -d 4 -p tcp -e 1040 -c 2 -i 2 -a 2 -x {0.0 5.0 1 ------- null}
+ -t 0.201024 -s 4 -d 5 -p tcp -e 1040 -c 2 -i 2 -a 2 -x {0.0 5.0 1 ------- null}
- -t 0.201024 -s 4 -d 5 -p tcp -e 1040 -c 2 -i 2 -a 2 -x {0.0 5.0 1 ------- null}
h -t 0.201024 -s 4 -d 5 -p tcp -e 1040 -c 2 -i 2 -a 2 -x {0.0 5.0 -1 ------- null}
r -t 0.201856 -s 0 -d 4 -p tcp -e 1040 -c 2 -i 3 -a 2 -x {0.0 5.0 2 ------- null}
+ -t 0.201856 -s 4 -d 5 -p tcp -e 1040 -c 2 -i 3 -a 2 -x {0.0 5.0 2 ------- null}
- -t 0.202688 -s 4 -d 5 -p tcp -e 1040 -c 2 -i 3 -a 2 -x {0.0 5.0 2 ------- null}
h -t 0.202688 -s 4 -d 5 -p tcp -e 1040 -c 2 -i 3 -a 2 -x {0.0 5.0 -1 ------- null}
+ -t 0.208 -s 3 -d 4 -p cbr -e 1000 -c 4 -i 5 -a 4 -x {3.0 5.3 1 ------- null}
- -t 0.208 -s 3 -d 4 -p cbr -e 1000 -c 4 -i 5 -a 4 -x {3.0 5.3 1 ------- null}
h -t 0.208 -s 3 -d 4 -p cbr -e 1000 -c 4 -i 5 -a 4 -x {3.0 5.3 -1 ------- null}
+ -t 0.216 -s 3 -d 4 -p cbr -e 1000 -c 4 -i 6 -a 4 -x {3.0 5.3 2 ------- null}
- -t 0.216 -s 3 -d 4 -p cbr -e 1000 -c 4 -i 6 -a 4 -x {3.0 5.3 2 ------- null}
h -t 0.216 -s 3 -d 4 -p cbr -e 1000 -c 4 -i 6 -a 4 -x {3.0 5.3 -1 ------- null}
r -t 0.22008 -s 3 -d 4 -p cbr -e 1000 -c 4 -i 4 -a 4 -x {3.0 5.3 0 ------- null}
+ -t 0.22008 -s 4 -d 5 -p cbr -e 1000 -c 4 -i 4 -a 4 -x {3.0 5.3 0 ------- null}
- -t 0.22008 -s 4 -d 5 -p cbr -e 1000 -c 4 -i 4 -a 4 -x {3.0 5.3 0 ------- null}
h -t 0.22008 -s 4 -d 5 -p cbr -e 1000 -c 4 -i 4 -a 4 -x {3.0 5.3 -1 ------- null}
r -t 0.222688 -s 4 -d 5 -p tcp -e 1040 -c 2 -i 2 -a 2 -x {0.0 5.0 1 ------- null}
+ -t 0.222688 -s 5 -d 4 -p ack -e 40 -c 2 -i 7 -a 2 -x {5.0 0.0 1 ------- null}
- -t 0.222688 -s 5 -d 4 -p ack -e 40 -c 2 -i 7 -a 2 -x {5.0 0.0 1 ------- null}
h -t 0.222688 -s 5 -d 4 -p ack -e 40 -c 2 -i 7 -a 2 -x {5.0 0.0 -1 ------- null}
+ -t 0.224 -s 3 -d 4 -p cbr -e 1000 -c 4 -i 8 -a 4 -x {3.0 5.3 3 ------- null}
- -t 0.224 -s 3 -d 4 -p cbr -e 1000 -c 4 -i 8 -a 4 -x {3.0 5.3 3 ------- null}
h -t 0.224 -s 3 -d 4 -p cbr -e 1000 -c 4 -i 8 -a 4 -x {3.0 5.3 -1 ------- null}
r -t 0.224352 -s 4 -d 5 -p tcp -e 1040 -c 2 -i 3 -a 2 -x {0.0 5.0 2 ------- null}
+ -t 0.224352 -s 5 -d 4 -p ack -e 40 -c 2 -i 9 -a 2 -x {5.0 0.0 2 ------- null}
- -t 0.224352 -s 5 -d 4 -p ack -e 40 -c 2 -i 9 -a 2 -x {5.0 0.0 2 ------- null}
h -t 0.224352 -s 5 -d 4 -p ack -e 40 -c 2 -i 9 -a 2 -x {5.0 0.0 -1 ------- null}
r -t 0.22808 -s 3 -d 4 -p cbr -e 1000 -c 4 -i 5 -a 4 -x {3.0 5.3 1 ------- null}
+ -t 0.22808 -s 4 -d 5 -p cbr -e 1000 -c 4 -i 5 -a 4 -x {3.0 5.3 1 ------- null}
- -t 0.22808 -s 4 -d 5 -p cbr -e 1000 -c 4 -i 5 -a 4 -x {3.0 5.3 1 ------- null}
h -t 0.22808 -s 4 -d 5 -p cbr -e 1000 -c 4 -i 5 -a 4 -x {3.0 5.3 -1 ------- null}
+ -t 0.232 -s 3 -d 4 -p cbr -e 1000 -c 4 -i 10 -a 4 -x {3.0 5.3 4 ------- null}
- -t 0.232 -s 3 -d 4 -p cbr -e 1000 -c 4 -i 10 -a 4 -x {3.0 5.3 4 ------- null}
h -t 0.232 -s 3 -d 4 -p cbr -e 1000 -c 4 -i 10 -a 4 -x {3.0 5.3 -1 ------- null}
r -t 0.23608 -s 3 -d 4 -p cbr -e 1000 -c 4 -i 6 -a 4 -x {3.0 5.3 2 ------- null}
+ -t 0.23608 -s 4 -d 5 -p cbr -e 1000 -c 4 -i 6 -a 4 -x {3.0 5.3 2 ------- null}
- -t 0.23608 -s 4 -d 5 -p cbr -e 1000 -c 4 -i 6 -a 4 -x {3.0 5.3 2 ------- null}
h -t 0.23608 -s 4 -d 5 -p cbr -e 1000 -c 4 -i 6 -a 4 -x {3.0 5.3 -1 ------- null}
+ -t 0.24 -s 3 -d 4 -p cbr -e 1000 -c 4 -i 11 -a 4 -x {3.0 5.3 5 ------- null}
- -t 0.24 -s 3 -d 4 -p cbr -e 1000 -c 4 -i 11 -a 4 -x {3.0 5.3 5 ------- null}
h -t 0.24 -s 3 -d 4 -p cbr -e 1000 -c 4 -i 11 -a 4 -x {3.0 5.3 -1 ------- null}
r -t 0.24168 -s 4 -d 5 -p cbr -e 1000 -c 4 -i 4 -a 4 -x {3.0 5.3 0 ------- null}
r -t 0.242752 -s 5 -d 4 -p ack -e 40 -c 2 -i 7 -a 2 -x {5.0 0.0 1 ------- null}
+ -t 0.242752 -s 4 -d 0 -p ack -e 40 -c 2 -i 7 -a 2 -x {5.0 0.0 1 ------- null}
- -t 0.242752 -s 4 -d 0 -p ack -e 40 -c 2 -i 7 -a 2 -x {5.0 0.0 1 ------- null}
h -t 0.242752 -s 4 -d 0 -p ack -e 40 -c 2 -i 7 -a 2 -x {5.0 0.0 -1 ------- null}
r -t 0.24408 -s 3 -d 4 -p cbr -e 1000 -c 4 -i 8 -a 4 -x {3.0 5.3 3 ------- null}
+ -t 0.24408 -s 4 -d 5 -p cbr -e 1000 -c 4 -i 8 -a 4 -x {3.0 5.3 3 ------- null}
- -t 0.24408 -s 4 -d 5 -p cbr -e 1000 -c 4 -i 8 -a 4 -x {3.0 5.3 3 ------- null}
h -t 0.24408 -s 4 -d 5 -p cbr -e 1000 -c 4 -i 8 -a 4 -x {3.0 5.3 -1 ------- null}
r -t 0.244416 -s 5 -d 4 -p ack -e 40 -c 2 -i 9 -a 2 -x {5.0 0.0 2 ------- null}
+ -t 0.244416 -s 4 -d 0 -p ack -e 40 -c 2 -i 9 -a 2 -x {5.0 0.0 2 ------- null}
- -t 0.244416 -s 4 -d 0 -p ack -e 40 -c 2 -i 9 -a 2 -x {5.0 0.0 2 ------- null}
h -t 0.244416 -s 4 -d 0 -p ack -e 40 -c 2 -i 9 -a 2 -x {5.0 0.0 -1 ------- null}
+ -t 0.248 -s 3 -d 4 -p cbr -e 1000 -c 4 -i 12 -a 4 -x {3.0 5.3 6 ------- null}
- -t 0.248 -s 3 -d 4 -p cbr -e 1000 -c 4 -i 12 -a 4 -x {3.0 5.3 6 ------- null}
h -t 0.248 -s 3 -d 4 -p cbr -e 1000 -c 4 -i 12 -a 4 -x {3.0 5.3 -1 ------- null}
r -t 0.24968 -s 4 -d 5 -p cbr -e 1000 -c 4 -i 5 -a 4 -x {3.0 5.3 1 ------- null}
r -t 0.25208 -s 3 -d 4 -p cbr -e 1000 -c 4 -i 10 -a 4 -x {3.0 5.3 4 ------- null}
+ -t 0.25208 -s 4 -d 5 -p cbr -e 1000 -c 4 -i 10 -a 4 -x {3.0 5.3 4 ------- null}
- -t 0.25208 -s 4 -d 5 -p cbr -e 1000 -c 4 -i 10 -a 4 -x {3.0 5.3 4 ------- null}
h -t 0.25208 -s 4 -d 5 -p cbr -e 1000 -c 4 -i 10 -a 4 -x {3.0 5.3 -1 ------- null}
+ -t 0.256 -s 3 -d 4 -p cbr -e 1000 -c 4 -i 13 -a 4 -x {3.0 5.3 7 ------- null}
- -t 0.256 -s 3 -d 4 -p cbr -e 1000 -c 4 -i 13 -a 4 -x {3.0 5.3 7 ------- null}
h -t 0.256 -s 3 -d 4 -p cbr -e 1000 -c 4 -i 13 -a 4 -x {3.0 5.3 -1 ------- null}
r -t 0.25768 -s 4 -d 5 -p cbr -e 1000 -c 4 -i 6 -a 4 -x {3.0 5.3 2 ------- null}
r -t 0.26008 -s 3 -d 4 -p cbr -e 1000 -c 4 -i 11 -a 4 -x {3.0 5.3 5 ------- null}
+ -t 0.26008 -s 4 -d 5 -p cbr -e 1000 -c 4 -i 11 -a 4 -x {3.0 5.3 5 ------- null}
- -t 0.26008 -s 4 -d 5 -p cbr -e 1000 -c 4 -i 11 -a 4 -x {3.0 5.3 5 ------- null}
h -t 0.26008 -s 4 -d 5 -p cbr -e 1000 -c 4 -i 11 -a 4 -x {3.0 5.3 -1 ------- null}
r -t 0.262784 -s 4 -d 0 -p ack -e 40 -c 2 -i 7 -a 2 -x {5.0 0.0 1 ------- null}
+ -t 0.262784 -s 0 -d 4 -p tcp -e 1040 -c 2 -i 14 -a 2 -x {0.0 5.0 3 ------- null}
- -t 0.262784 -s 0 -d 4 -p tcp -e 1040 -c 2 -i 14 -a 2 -x {0.0 5.0 3 ------- null}
h -t 0.262784 -s 0 -d 4 -p tcp -e 1040 -c 2 -i 14 -a 2 -x {0.0 5.0 -1 ------- null}
+ -t 0.262784 -s 0 -d 4 -p tcp -e 1040 -c 2 -i 15 -a 2 -x {0.0 5.0 4 ------- null}
- -t 0.263616 -s 0 -d 4 -p tcp -e 1040 -c 2 -i 15 -a 2 -x {0.0 5.0 4 ------- null}
h -t 0.263616 -s 0 -d 4 -p tcp -e 1040 -c 2 -i 15 -a 2 -x {0.0 5.0 -1 ------- null}
+ -t 0.264 -s 3 -d 4 -p cbr -e 1000 -c 4 -i 16 -a 4 -x {3.0 5.3 8 ------- null}
- -t 0.264 -s 3 -d 4 -p cbr -e 1000 -c 4 -i 16 -a 4 -x {3.0 5.3 8 ------- null}
h -t 0.264 -s 3 -d 4 -p cbr -e 1000 -c 4 -i 16 -a 4 -x {3.0 5.3 -1 ------- null}
r -t 0.264448 -s 4 -d 0 -p ack -e 40 -c 2 -i 9 -a 2 -x {5.0 0.0 2 ------- null}
+ -t 0.264448 -s 0 -d 4 -p tcp -e 1040 -c 2 -i 17 -a 2 -x {0.0 5.0 5 ------- null}
+ -t 0.264448 -s 0 -d 4 -p tcp -e 1040 -c 2 -i 18 -a 2 -x {0.0 5.0 6 ------- null}
- -t 0.264448 -s 0 -d 4 -p tcp -e 1040 -c 2 -i 17 -a 2 -x {0.0 5.0 5 ------- null}
h -t 0.264448 -s 0 -d 4 -p tcp -e 1040 -c 2 -i 17 -a 2 -x {0.0 5.0 -1 ------- null}
- -t 0.26528 -s 0 -d 4 -p tcp -e 1040 -c 2 -i 18 -a 2 -x {0.0 5.0 6 ------- null}
h -t 0.26528 -s 0 -d 4 -p tcp -e 1040 -c 2 -i 18 -a 2 -x {0.0 5.0 -1 ------- null}
r -t 0.26568 -s 4 -d 5 -p cbr -e 1000 -c 4 -i 8 -a 4 -x {3.0 5.3 3 ------- null}
r -t 0.26808 -s 3 -d 4 -p cbr -e 1000 -c 4 -i 12 -a 4 -x {3.0 5.3 6 ------- null}
+ -t 0.26808 -s 4 -d 5 -p cbr -e 1000 -c 4 -i 12 -a 4 -x {3.0 5.3 6 ------- null}
- -t 0.26808 -s 4 -d 5 -p cbr -e 1000 -c 4 -i 12 -a 4 -x {3.0 5.3 6 ------- null}
h -t 0.26808 -s 4 -d 5 -p cbr -e 1000 -c 4 -i 12 -a 4 -x {3.0 5.3 -1 ------- null}
+ -t 0.272 -s 3 -d 4 -p cbr -e 1000 -c 4 -i 19 -a 4 -x {3.0 5.3 9 ------- null}
- -t 0.272 -s 3 -d 4 -p cbr -e 1000 -c 4 -i 19 -a 4 -x {3.0 5.3 9 ------- null}
h -t 0.272 -s 3 -d 4 -p cbr -e 1000 -c 4 -i 19 -a 4 -x {3.0 5.3 -1 ------- null}
r -t 0.27368 -s 4 -d 5 -p cbr -e 1000 -c 4 -i 10 -a 4 -x {3.0 5.3 4 ------- null}
r -t 0.27608 -s 3 -d 4 -p cbr -e 1000 -c 4 -i 13 -a 4 -x {3.0 5.3 7 ------- null}
+ -t 0.27608 -s 4 -d 5 -p cbr -e 1000 -c 4 -i 13 -a 4 -x {3.0 5.3 7 ------- null}
- -t 0.27608 -s 4 -d 5 -p cbr -e 1000 -c 4 -i 13 -a 4 -x {3.0 5.3 7 ------- null}
h -t 0.27608 -s 4 -d 5 -p cbr -e 1000 -c 4 -i 13 -a 4 -x {3.0 5.3 -1 ------- null}
+ -t 0.28 -s 3 -d 4 -p cbr -e 1000 -c 4 -i 20 -a 4 -x {3.0 5.3 10 ------- null}
- -t 0.28 -s 3 -d 4 -p cbr -e 1000 -c 4 -i 20 -a 4 -x {3.0 5.3 10 ------- null}
h -t 0.28 -s 3 -d 4 -p cbr -e 1000 -c 4 -i 20 -a 4 -x {3.0 5.3 -1 ------- null}
r -t 0.28168 -s 4 -d 5 -p cbr -e 1000 -c 4 -i 11 -a 4 -x {3.0 5.3 5 ------- null}
r -t 0.283616 -s 0 -d 4 -p tcp -e 1040 -c 2 -i 14 -a 2 -x {0.0 5.0 3 ------- null}
+ -t 0.283616 -s 4 -d 5 -p tcp -e 1040 -c 2 -i 14 -a 2 -x {0.0 5.0 3 ------- null}
- -t 0.283616 -s 4 -d 5 -p tcp -e 1040 -c 2 -i 14 -a 2 -x {0.0 5.0 3 ------- null}
h -t 0.283616 -s 4 -d 5 -p tcp -e 1040 -c 2 -i 14 -a 2 -x {0.0 5.0 -1 ------- null}
r -t 0.28408 -s 3 -d 4 -p cbr -e 1000 -c 4 -i 16 -a 4 -x {3.0 5.3 8 ------- null}
+ -t 0.28408 -s 4 -d 5 -p cbr -e 1000 -c 4 -i 16 -a 4 -x {3.0 5.3 8 ------- null}
r -t 0.284448 -s 0 -d 4 -p tcp -e 1040 -c 2 -i 15 -a 2 -x {0.0 5.0 4 ------- null}
+ -t 0.284448 -s 4 -d 5 -p tcp -e 1040 -c 2 -i 15 -a 2 -x {0.0 5.0 4 ------- null}
r -t 0.28528 -s 0 -d 4 -p tcp -e 1040 -c 2 -i 17 -a 2 -x {0.0 5.0 5 ------- null}
+ -t 0.28528 -s 4 -d 5 -p tcp -e 1040 -c 2 -i 17 -a 2 -x {0.0 5.0 5 ------- null}
- -t 0.28528 -s 4 -d 5 -p cbr -e 1000 -c 4 -i 16 -a 4 -x {3.0 5.3 8 ------- null}
h -t 0.28528 -s 4 -d 5 -p cbr -e 1000 -c 4 -i 16 -a 4 -x {3.0 5.3 -1 ------- null}
r -t 0.286112 -s 0 -d 4 -p tcp -e 1040 -c 2 -i 18 -a 2 -x {0.0 5.0 6 ------- null}
+ -t 0.286112 -s 4 -d 5 -p tcp -e 1040 -c 2 -i 18 -a 2 -x {0.0 5.0 6 ------- null}
- -t 0.28688 -s 4 -d 5 -p tcp -e 1040 -c 2 -i 15 -a 2 -x {0.0 5.0 4 ------- null}
h -t 0.28688 -s 4 -d 5 -p tcp -e 1040 -c 2 -i 15 -a 2 -x {0.0 5.0 -1 ------- null}
+ -t 0.288 -s 3 -d 4 -p cbr -e 1000 -c 4 -i 21 -a 4 -x {3.0 5.3 11 ------- null}
- -t 0.288 -s 3 -d 4 -p cbr -e 1000 -c 4 -i 21 -a 4 -x {3.0 5.3 11 ------- null}
h -t 0.288 -s 3 -d 4 -p cbr -e 1000 -c 4 -i 21 -a 4 -x {3.0 5.3 -1 ------- null}
- -t 0.288544 -s 4 -d 5 -p tcp -e 1040 -c 2 -i 17 -a 2 -x {0.0 5.0 5 ------- null}
h -t 0.288544 -s 4 -d 5 -p tcp -e 1040 -c 2 -i 17 -a 2 -x {0.0 5.0 -1 ------- null}
r -t 0.28968 -s 4 -d 5 -p cbr -e 1000 -c 4 -i 12 -a 4 -x {3.0 5.3 6 ------- null}
- -t 0.290208 -s 4 -d 5 -p tcp -e 1040 -c 2 -i 18 -a 2 -x {0.0 5.0 6 ------- null}
h -t 0.290208 -s 4 -d 5 -p tcp -e 1040 -c 2 -i 18 -a 2 -x {0.0 5.0 -1 ------- null}
r -t 0.29208 -s 3 -d 4 -p cbr -e 1000 -c 4 -i 19 -a 4 -x {3.0 5.3 9 ------- null}
+ -t 0.29208 -s 4 -d 5 -p cbr -e 1000 -c 4 -i 19 -a 4 -x {3.0 5.3 9 ------- null}
- -t 0.29208 -s 4 -d 5 -p cbr -e 1000 -c 4 -i 19 -a 4 -x {3.0 5.3 9 ------- null}
h -t 0.29208 -s 4 -d 5 -p cbr -e 1000 -c 4 -i 19 -a 4 -x {3.0 5.3 -1 ------- null}
+ -t 0.296 -s 3 -d 4 -p cbr -e 1000 -c 4 -i 22 -a 4 -x {3.0 5.3 12 ------- null}
- -t 0.296 -s 3 -d 4 -p cbr -e 1000 -c 4 -i 22 -a 4 -x {3.0 5.3 12 ------- null}
h -t 0.296 -s 3 -d 4 -p cbr -e 1000 -c 4 -i 22 -a 4 -x {3.0 5.3 -1 ------- null}
r -t 0.29768 -s 4 -d 5 -p cbr -e 1000 -c 4 -i 13 -a 4 -x {3.0 5.3 7 ------- null}
r -t 0.30008 -s 3 -d 4 -p cbr -e 1000 -c 4 -i 20 -a 4 -x {3.0 5.3 10 ------- null}
+ -t 0.30008 -s 4 -d 5 -p cbr -e 1000 -c 4 -i 20 -a 4 -x {3.0 5.3 10 ------- null}
- -t 0.30008 -s 4 -d 5 -p cbr -e 1000 -c 4 -i 20 -a 4 -x {3.0 5.3 10 ------- null}
h -t 0.30008 -s 4 -d 5 -p cbr -e 1000 -c 4 -i 20 -a 4 -x {3.0 5.3 -1 ------- null}
+ -t 0.304 -s 3 -d 4 -p cbr -e 1000 -c 4 -i 23 -a 4 -x {3.0 5.3 13 ------- null}
- -t 0.304 -s 3 -d 4 -p cbr -e 1000 -c 4 -i 23 -a 4 -x {3.0 5.3 13 ------- null}
h -t 0.304 -s 3 -d 4 -p cbr -e 1000 -c 4 -i 23 -a 4 -x {3.0 5.3 -1 ------- null}
r -t 0.30528 -s 4 -d 5 -p tcp -e 1040 -c 2 -i 14 -a 2 -x {0.0 5.0 3 ------- null}
+ -t 0.30528 -s 5 -d 4 -p ack -e 40 -c 2 -i 24 -a 2 -x {5.0 0.0 3 ------- null}
- -t 0.30528 -s 5 -d 4 -p ack -e 40 -c 2 -i 24 -a 2 -x {5.0 0.0 3 ------- null}
h -t 0.30528 -s 5 -d 4 -p ack -e 40 -c 2 -i 24 -a 2 -x {5.0 0.0 -1 ------- null}
r -t 0.30688 -s 4 -d 5 -p cbr -e 1000 -c 4 -i 16 -a 4 -x {3.0 5.3 8 ------- null}
r -t 0.30808 -s 3 -d 4 -p cbr -e 1000 -c 4 -i 21 -a 4 -x {3.0 5.3 11 ------- null}
+ -t 0.30808 -s 4 -d 5 -p cbr -e 1000 -c 4 -i 21 -a 4 -x {3.0 5.3 11 ------- null}
- -t 0.30808 -s 4 -d 5 -p cbr -e 1000 -c 4 -i 21 -a 4 -x {3.0 5.3 11 ------- null}
h -t 0.30808 -s 4 -d 5 -p cbr -e 1000 -c 4 -i 21 -a 4 -x {3.0 5.3 -1 ------- null}
r -t 0.308544 -s 4 -d 5 -p tcp -e 1040 -c 2 -i 15 -a 2 -x {0.0 5.0 4 ------- null}
+ -t 0.308544 -s 5 -d 4 -p ack -e 40 -c 2 -i 25 -a 2 -x {5.0 0.0 4 ------- null}
- -t 0.308544 -s 5 -d 4 -p ack -e 40 -c 2 -i 25 -a 2 -x {5.0 0.0 4 ------- null}
h -t 0.308544 -s 5 -d 4 -p ack -e 40 -c 2 -i 25 -a 2 -x {5.0 0.0 -1 ------- null}
r -t 0.310208 -s 4 -d 5 -p tcp -e 1040 -c 2 -i 17 -a 2 -x {0.0 5.0 5 ------- null}
+ -t 0.310208 -s 5 -d 4 -p ack -e 40 -c 2 -i 26 -a 2 -x {5.0 0.0 5 ------- null}
- -t 0.310208 -s 5 -d 4 -p ack -e 40 -c 2 -i 26 -a 2 -x {5.0 0.0 5 ------- null}
h -t 0.310208 -s 5 -d 4 -p ack -e 40 -c 2 -i 26 -a 2 -x {5.0 0.0 -1 ------- null}
r -t 0.311872 -s 4 -d 5 -p tcp -e 1040 -c 2 -i 18 -a 2 -x {0.0 5.0 6 ------- null}
+ -t 0.311872 -s 5 -d 4 -p ack -e 40 -c 2 -i 27 -a 2 -x {5.0 0.0 6 ------- null}
- -t 0.311872 -s 5 -d 4 -p ack -e 40 -c 2 -i 27 -a 2 -x {5.0 0.0 6 ------- null}
h -t 0.311872 -s 5 -d 4 -p ack -e 40 -c 2 -i 27 -a 2 -x {5.0 0.0 -1 ------- null}
+ -t 0.312 -s 3 -d 4 -p cbr -e 1000 -c 4 -i 28 -a 4 -x {3.0 5.3 14 ------- null}
- -t 0.312 -s 3 -d 4 -p cbr -e 1000 -c 4 -i 28 -a 4 -x {3.0 5.3 14 ------- null}
h -t 0.312 -s 3 -d 4 -p cbr -e 1000 -c 4 -i 28 -a 4 -x {3.0 5.3 -1 ------- null}
r -t 0.31368 -s 4 -d 5 -p cbr -e 1000 -c 4 -i 19 -a 4 -x {3.0 5.3 9 ------- null}
r -t 0.31608 -s 3 -d 4 -p cbr -e 1000 -c 4 -i 22 -a 4 -x {3.0 5.3 12 ------- null}
+ -t 0.31608 -s 4 -d 5 -p cbr -e 1000 -c 4 -i 22 -a 4 -x {3.0 5.3 12 ------- null}
- -t 0.31608 -s 4 -d 5 -p cbr -e 1000 -c 4 -i 22 -a 4 -x {3.0 5.3 12 ------- null}
h -t 0.31608 -s 4 -d 5 -p cbr -e 1000 -c 4 -i 22 -a 4 -x {3.0 5.3 -1 ------- null}
+ -t 0.32 -s 3 -d 4 -p cbr -e 1000 -c 4 -i 29 -a 4 -x {3.0 5.3 15 ------- null}
- -t 0.32 -s 3 -d 4 -p cbr -e 1000 -c 4 -i 29 -a 4 -x {3.0 5.3 15 ------- null}
h -t 0.32 -s 3 -d 4 -p cbr -e 1000 -c 4 -i 29 -a 4 -x {3.0 5.3 -1 ------- null}
r -t 0.32168 -s 4 -d 5 -p cbr -e 1000 -c 4 -i 20 -a 4 -x {3.0 5.3 10 ------- null}
r -t 0.32408 -s 3 -d 4 -p cbr -e 1000 -c 4 -i 23 -a 4 -x {3.0 5.3 13 ------- null}
+ -t 0.32408 -s 4 -d 5 -p cbr -e 1000 -c 4 -i 23 -a 4 -x {3.0 5.3 13 ------- null}
- -t 0.32408 -s 4 -d 5 -p cbr -e 1000 -c 4 -i 23 -a 4 -x {3.0 5.3 13 ------- null}
h -t 0.32408 -s 4 -d 5 -p cbr -e 1000 -c 4 -i 23 -a 4 -x {3.0 5.3 -1 ------- null}
r -t 0.325344 -s 5 -d 4 -p ack -e 40 -c 2 -i 24 -a 2 -x {5.0 0.0 3 ------- null}
+ -t 0.325344 -s 4 -d 0 -p ack -e 40 -c 2 -i 24 -a 2 -x {5.0 0.0 3 ------- null}
- -t 0.325344 -s 4 -d 0 -p ack -e 40 -c 2 -i 24 -a 2 -x {5.0 0.0 3 ------- null}
h -t 0.325344 -s 4 -d 0 -p ack -e 40 -c 2 -i 24 -a 2 -x {5.0 0.0 -1 ------- null}
+ -t 0.328 -s 3 -d 4 -p cbr -e 1000 -c 4 -i 30 -a 4 -x {3.0 5.3 16 ------- null}
- -t 0.328 -s 3 -d 4 -p cbr -e 1000 -c 4 -i 30 -a 4 -x {3.0 5.3 16 ------- null}
h -t 0.328 -s 3 -d 4 -p cbr -e 1000 -c 4 -i 30 -a 4 -x {3.0 5.3 -1 ------- null}
r -t 0.328608 -s 5 -d 4 -p ack -e 40 -c 2 -i 25 -a 2 -x {5.0 0.0 4 ------- null}
+ -t 0.328608 -s 4 -d 0 -p ack -e 40 -c 2 -i 25 -a 2 -x {5.0 0.0 4 ------- null}
- -t 0.328608 -s 4 -d 0 -p ack -e 40 -c 2 -i 25 -a 2 -x {5.0 0.0 4 ------- null}
h -t 0.328608 -s 4 -d 0 -p ack -e 40 -c 2 -i 25 -a 2 -x {5.0 0.0 -1 ------- null}
r -t 0.32968 -s 4 -d 5 -p cbr -e 1000 -c 4 -i 21 -a 4 -x {3.0 5.3 11 ------- null}
r -t 0.330272 -s 5 -d 4 -p ack -e 40 -c 2 -i 26 -a 2 -x {5.0 0.0 5 ------- null}
+ -t 0.330272 -s 4 -d 0 -p ack -e 40 -c 2 -i 26 -a 2 -x {5.0 0.0 5 ------- null}
- -t 0.330272 -s 4 -d 0 -p ack -e 40 -c 2 -i 26 -a 2 -x {5.0 0.0 5 ------- null}
h -t 0.330272 -s 4 -d 0 -p ack -e 40 -c 2 -i 26 -a 2 -x {5.0 0.0 -1 ------- null}
r -t 0.331936 -s 5 -d 4 -p ack -e 40 -c 2 -i 27 -a 2 -x {5.0 0.0 6 ------- null}
+ -t 0.331936 -s 4 -d 0 -p ack -e 40 -c 2 -i 27 -a 2 -x {5.0 0.0 6 ------- null}
- -t 0.331936 -s 4 -d 0 -p ack -e 40 -c 2 -i 27 -a 2 -x {5.0 0.0 6 ------- null}
h -t 0.331936 -s 4 -d 0 -p ack -e 40 -c 2 -i 27 -a 2 -x {5.0 0.0 -1 ------- null}
r -t 0.33208 -s 3 -d 4 -p cbr -e 1000 -c 4 -i 28 -a 4 -x {3.0 5.3 14 ------- null}
+ -t 0.33208 -s 4 -d 5 -p cbr -e 1000 -c 4 -i 28 -a 4 -x {3.0 5.3 14 ------- null}
- -t 0.33208 -s 4 -d 5 -p cbr -e 1000 -c 4 -i 28 -a 4 -x {3.0 5.3 14 ------- null}
h -t 0.33208 -s 4 -d 5 -p cbr -e 1000 -c 4 -i 28 -a 4 -x {3.0 5.3 -1 ------- null}
+ -t 0.336 -s 3 -d 4 -p cbr -e 1000 -c 4 -i 31 -a 4 -x {3.0 5.3 17 ------- null}
- -t 0.336 -s 3 -d 4 -p cbr -e 1000 -c 4 -i 31 -a 4 -x {3.0 5.3 17 ------- null}
h -t 0.336 -s 3 -d 4 -p cbr -e 1000 -c 4 -i 31 -a 4 -x {3.0 5.3 -1 ------- null}
r -t 0.33768 -s 4 -d 5 -p cbr -e 1000 -c 4 -i 22 -a 4 -x {3.0 5.3 12 ------- null}
r -t 0.34008 -s 3 -d 4 -p cbr -e 1000 -c 4 -i 29 -a 4 -x {3.0 5.3 15 ------- null}
+ -t 0.34008 -s 4 -d 5 -p cbr -e 1000 -c 4 -i 29 -a 4 -x {3.0 5.3 15 ------- null}
- -t 0.34008 -s 4 -d 5 -p cbr -e 1000 -c 4 -i 29 -a 4 -x {3.0 5.3 15 ------- null}
h -t 0.34008 -s 4 -d 5 -p cbr -e 1000 -c 4 -i 29 -a 4 -x {3.0 5.3 -1 ------- null}
+ -t 0.344 -s 3 -d 4 -p cbr -e 1000 -c 4 -i 32 -a 4 -x {3.0 5.3 18 ------- null}
- -t 0.344 -s 3 -d 4 -p cbr -e 1000 -c 4 -i 32 -a 4 -x {3.0 5.3 18 ------- null}
h -t 0.344 -s 3 -d 4 -p cbr -e 1000 -c 4 -i 32 -a 4 -x {3.0 5.3 -1 ------- null}
r -t 0.345376 -s 4 -d 0 -p ack -e 40 -c 2 -i 24 -a 2 -x {5.0 0.0 3 ------- null}
+ -t 0.345376 -s 0 -d 4 -p tcp -e 1040 -c 2 -i 33 -a 2 -x {0.0 5.0 7 ------- null}
- -t 0.345376 -s 0 -d 4 -p tcp -e 1040 -c 2 -i 33 -a 2 -x {0.0 5.0 7 ------- null}
h -t 0.345376 -s 0 -d 4 -p tcp -e 1040 -c 2 -i 33 -a 2 -x {0.0 5.0 -1 ------- null}
+ -t 0.345376 -s 0 -d 4 -p tcp -e 1040 -c 2 -i 34 -a 2 -x {0.0 5.0 8 ------- null}
r -t 0.34568 -s 4 -d 5 -p cbr -e 1000 -c 4 -i 23 -a 4 -x {3.0 5.3 13 ------- null}
- -t 0.346208 -s 0 -d 4 -p tcp -e 1040 -c 2 -i 34 -a 2 -x {0.0 5.0 8 ------- null}
h -t 0.346208 -s 0 -d 4 -p tcp -e 1040 -c 2 -i 34 -a 2 -x {0.0 5.0 -1 ------- null}
r -t 0.34808 -s 3 -d 4 -p cbr -e 1000 -c 4 -i 30 -a 4 -x {3.0 5.3 16 ------- null}
+ -t 0.34808 -s 4 -d 5 -p cbr -e 1000 -c 4 -i 30 -a 4 -x {3.0 5.3 16 ------- null}
- -t 0.34808 -s 4 -d 5 -p cbr -e 1000 -c 4 -i 30 -a 4 -x {3.0 5.3 16 ------- null}
h -t 0.34808 -s 4 -d 5 -p cbr -e 1000 -c 4 -i 30 -a 4 -x {3.0 5.3 -1 ------- null}
r -t 0.34864 -s 4 -d 0 -p ack -e 40 -c 2 -i 25 -a 2 -x {5.0 0.0 4 ------- null}
+ -t 0.34864 -s 0 -d 4 -p tcp -e 1040 -c 2 -i 35 -a 2 -x {0.0 5.0 9 ------- null}
- -t 0.34864 -s 0 -d 4 -p tcp -e 1040 -c 2 -i 35 -a 2 -x {0.0 5.0 9 ------- null}
h -t 0.34864 -s 0 -d 4 -p tcp -e 1040 -c 2 -i 35 -a 2 -x {0.0 5.0 -1 ------- null}
+ -t 0.34864 -s 0 -d 4 -p tcp -e 1040 -c 2 -i 36 -a 2 -x {0.0 5.0 10 ------- null}
- -t 0.349472 -s 0 -d 4 -p tcp -e 1040 -c 2 -i 36 -a 2 -x {0.0 5.0 10 ------- null}
h -t 0.349472 -s 0 -d 4 -p tcp -e 1040 -c 2 -i 36 -a 2 -x {0.0 5.0 -1 ------- null}
r -t 0.350304 -s 4 -d 0 -p ack -e 40 -c 2 -i 26 -a 2 -x {5.0 0.0 5 ------- null}
+ -t 0.350304 -s 0 -d 4 -p tcp -e 1040 -c 2 -i 37 -a 2 -x {0.0 5.0 11 ------- null}
+ -t 0.350304 -s 0 -d 4 -p tcp -e 1040 -c 2 -i 38 -a 2 -x {0.0 5.0 12 ------- null}
- -t 0.350304 -s 0 -d 4 -p tcp -e 1040 -c 2 -i 37 -a 2 -x {0.0 5.0 11 ------- null}
h -t 0.350304 -s 0 -d 4 -p tcp -e 1040 -c 2 -i 37 -a 2 -x {0.0 5.0 -1 ------- null}
- -t 0.351136 -s 0 -d 4 -p tcp -e 1040 -c 2 -i 38 -a 2 -x {0.0 5.0 12 ------- null}
h -t 0.351136 -s 0 -d 4 -p tcp -e 1040 -c 2 -i 38 -a 2 -x {0.0 5.0 -1 ------- null}
r -t 0.351968 -s 4 -d 0 -p ack -e 40 -c 2 -i 27 -a 2 -x {5.0 0.0 6 ------- null}
+ -t 0.351968 -s 0 -d 4 -p tcp -e 1040 -c 2 -i 39 -a 2 -x {0.0 5.0 13 ------- null}
+ -t 0.351968 -s 0 -d 4 -p tcp -e 1040 -c 2 -i 40 -a 2 -x {0.0 5.0 14 ------- null}
- -t 0.351968 -s 0 -d 4 -p tcp -e 1040 -c 2 -i 39 -a 2 -x {0.0 5.0 13 ------- null}
h -t 0.351968 -s 0 -d 4 -p tcp -e 1040 -c 2 -i 39 -a 2 -x {0.0 5.0 -1 ------- null}
+ -t 0.352 -s 3 -d 4 -p cbr -e 1000 -c 4 -i 41 -a 4 -x {3.0 5.3 19 ------- null}
- -t 0.352 -s 3 -d 4 -p cbr -e 1000 -c 4 -i 41 -a 4 -x {3.0 5.3 19 ------- null}
h -t 0.352 -s 3 -d 4 -p cbr -e 1000 -c 4 -i 41 -a 4 -x {3.0 5.3 -1 ------- null}
- -t 0.3528 -s 0 -d 4 -p tcp -e 1040 -c 2 -i 40 -a 2 -x {0.0 5.0 14 ------- null}
h -t 0.3528 -s 0 -d 4 -p tcp -e 1040 -c 2 -i 40 -a 2 -x {0.0 5.0 -1 ------- null}
r -t 0.35368 -s 4 -d 5 -p cbr -e 1000 -c 4 -i 28 -a 4 -x {3.0 5.3 14 ------- null}
r -t 0.35608 -s 3 -d 4 -p cbr -e 1000 -c 4 -i 31 -a 4 -x {3.0 5.3 17 ------- null}
+ -t 0.35608 -s 4 -d 5 -p cbr -e 1000 -c 4 -i 31 -a 4 -x {3.0 5.3 17 ------- null}
- -t 0.35608 -s 4 -d 5 -p cbr -e 1000 -c 4 -i 31 -a 4 -x {3.0 5.3 17 ------- null}
h -t 0.35608 -s 4 -d 5 -p cbr -e 1000 -c 4 -i 31 -a 4 -x {3.0 5.3 -1 ------- null}
+ -t 0.36 -s 3 -d 4 -p cbr -e 1000 -c 4 -i 42 -a 4 -x {3.0 5.3 20 ------- null}
- -t 0.36 -s 3 -d 4 -p cbr -e 1000 -c 4 -i 42 -a 4 -x {3.0 5.3 20 ------- null}
h -t 0.36 -s 3 -d 4 -p cbr -e 1000 -c 4 -i 42 -a 4 -x {3.0 5.3 -1 ------- null}
r -t 0.36168 -s 4 -d 5 -p cbr -e 1000 -c 4 -i 29 -a 4 -x {3.0 5.3 15 ------- null}
r -t 0.36408 -s 3 -d 4 -p cbr -e 1000 -c 4 -i 32 -a 4 -x {3.0 5.3 18 ------- null}
+ -t 0.36408 -s 4 -d 5 -p cbr -e 1000 -c 4 -i 32 -a 4 -x {3.0 5.3 18 ------- null}
- -t 0.36408 -s 4 -d 5 -p cbr -e 1000 -c 4 -i 32 -a 4 -x {3.0 5.3 18 ------- null}
h -t 0.36408 -s 4 -d 5 -p cbr -e 1000 -c 4 -i 32 -a 4 -x {3.0 5.3 -1 ------- null}
r -t 0.366208 -s 0 -d 4 -p tcp -e 1040 -c 2 -i 33 -a 2 -x {0.0 5.0 7 ------- null}
+ -t 0.366208 -s 4 -d 5 -p tcp -e 1040 -c 2 -i 33 -a 2 -x {0.0 5.0 7 ------- null}
- -t 0.366208 -s 4 -d 5 -p tcp -e 1040 -c 2 -i 33 -a 2 -x {0.0 5.0 7 ------- null}
h -t 0.366208 -s 4 -d 5 -p tcp -e 1040 -c 2 -i 33 -a 2 -x {0.0 5.0 -1 ------- null}
r -t 0.36704 -s 0 -d 4 -p tcp -e 1040 -c 2 -i 34 -a 2 -x {0.0 5.0 8 ------- null}
+ -t 0.36704 -s 4 -d 5 -p tcp -e 1040 -c 2 -i 34 -a 2 -x {0.0 5.0 8 ------- null}
- -t 0.367872 -s 4 -d 5 -p tcp -e 1040 -c 2 -i 34 -a 2 -x {0.0 5.0 8 ------- null}
h -t 0.367872 -s 4 -d 5 -p tcp -e 1040 -c 2 -i 34 -a 2 -x {0.0 5.0 -1 ------- null}
+ -t 0.368 -s 3 -d 4 -p cbr -e 1000 -c 4 -i 43 -a 4 -x {3.0 5.3 21 ------- null}
- -t 0.368 -s 3 -d 4 -p cbr -e 1000 -c 4 -i 43 -a 4 -x {3.0 5.3 21 ------- null}
h -t 0.368 -s 3 -d 4 -p cbr -e 1000 -c 4 -i 43 -a 4 -x {3.0 5.3 -1 ------- null}
r -t 0.369472 -s 0 -d 4 -p tcp -e 1040 -c 2 -i 35 -a 2 -x {0.0 5.0 9 ------- null}
+ -t 0.369472 -s 4 -d 5 -p tcp -e 1040 -c 2 -i 35 -a 2 -x {0.0 5.0 9 ------- null}
- -t 0.369536 -s 4 -d 5 -p tcp -e 1040 -c 2 -i 35 -a 2 -x {0.0 5.0 9 ------- null}
h -t 0.369536 -s 4 -d 5 -p tcp -e 1040 -c 2 -i 35 -a 2 -x {0.0 5.0 -1 ------- null}
r -t 0.36968 -s 4 -d 5 -p cbr -e 1000 -c 4 -i 30 -a 4 -x {3.0 5.3 16 ------- null}
r -t 0.370304 -s 0 -d 4 -p tcp -e 1040 -c 2 -i 36 -a 2 -x {0.0 5.0 10 ------- null}
+ -t 0.370304 -s 4 -d 5 -p tcp -e 1040 -c 2 -i 36 -a 2 -x {0.0 5.0 10 ------- null}
r -t 0.371136 -s 0 -d 4 -p tcp -e 1040 -c 2 -i 37 -a 2 -x {0.0 5.0 11 ------- null}
+ -t 0.371136 -s 4 -d 5 -p tcp -e 1040 -c 2 -i 37 -a 2 -x {0.0 5.0 11 ------- null}
- -t 0.3712 -s 4 -d 5 -p tcp -e 1040 -c 2 -i 36 -a 2 -x {0.0 5.0 10 ------- null}
h -t 0.3712 -s 4 -d 5 -p tcp -e 1040 -c 2 -i 36 -a 2 -x {0.0 5.0 -1 ------- null}
r -t 0.371968 -s 0 -d 4 -p tcp -e 1040 -c 2 -i 38 -a 2 -x {0.0 5.0 12 ------- null}
+ -t 0.371968 -s 4 -d 5 -p tcp -e 1040 -c 2 -i 38 -a 2 -x {0.0 5.0 12 ------- null}
r -t 0.37208 -s 3 -d 4 -p cbr -e 1000 -c 4 -i 41 -a 4 -x {3.0 5.3 19 ------- null}
+ -t 0.37208 -s 4 -d 5 -p cbr -e 1000 -c 4 -i 41 -a 4 -x {3.0 5.3 19 ------- null}
r -t 0.3728 -s 0 -d 4 -p tcp -e 1040 -c 2 -i 39 -a 2 -x {0.0 5.0 13 ------- null}
+ -t 0.3728 -s 4 -d 5 -p tcp -e 1040 -c 2 -i 39 -a 2 -x {0.0 5.0 13 ------- null}
- -t 0.372864 -s 4 -d 5 -p cbr -e 1000 -c 4 -i 41 -a 4 -x {3.0 5.3 19 ------- null}
h -t 0.372864 -s 4 -d 5 -p cbr -e 1000 -c 4 -i 41 -a 4 -x {3.0 5.3 -1 ------- null}
r -t 0.373632 -s 0 -d 4 -p tcp -e 1040 -c 2 -i 40 -a 2 -x {0.0 5.0 14 ------- null}
+ -t 0.373632 -s 4 -d 5 -p tcp -e 1040 -c 2 -i 40 -a 2 -x {0.0 5.0 14 ------- null}
- -t 0.374464 -s 4 -d 5 -p tcp -e 1040 -c 2 -i 37 -a 2 -x {0.0 5.0 11 ------- null}
h -t 0.374464 -s 4 -d 5 -p tcp -e 1040 -c 2 -i 37 -a 2 -x {0.0 5.0 -1 ------- null}
+ -t 0.376 -s 3 -d 4 -p cbr -e 1000 -c 4 -i 44 -a 4 -x {3.0 5.3 22 ------- null}
- -t 0.376 -s 3 -d 4 -p cbr -e 1000 -c 4 -i 44 -a 4 -x {3.0 5.3 22 ------- null}
h -t 0.376 -s 3 -d 4 -p cbr -e 1000 -c 4 -i 44 -a 4 -x {3.0 5.3 -1 ------- null}
- -t 0.376128 -s 4 -d 5 -p tcp -e 1040 -c 2 -i 38 -a 2 -x {0.0 5.0 12 ------- null}
h -t 0.376128 -s 4 -d 5 -p tcp -e 1040 -c 2 -i 38 -a 2 -x {0.0 5.0 -1 ------- null}
r -t 0.37768 -s 4 -d 5 -p cbr -e 1000 -c 4 -i 31 -a 4 -x {3.0 5.3 17 ------- null}
- -t 0.377792 -s 4 -d 5 -p tcp -e 1040 -c 2 -i 39 -a 2 -x {0.0 5.0 13 ------- null}
h -t 0.377792 -s 4 -d 5 -p tcp -e 1040 -c 2 -i 39 -a 2 -x {0.0 5.0 -1 ------- null}
- -t 0.379456 -s 4 -d 5 -p tcp -e 1040 -c 2 -i 40 -a 2 -x {0.0 5.0 14 ------- null}
h -t 0.379456 -s 4 -d 5 -p tcp -e 1040 -c 2 -i 40 -a 2 -x {0.0 5.0 -1 ------- null}
r -t 0.38008 -s 3 -d 4 -p cbr -e 1000 -c 4 -i 42 -a 4 -x {3.0 5.3 20 ------- null}
+ -t 0.38008 -s 4 -d 5 -p cbr -e 1000 -c 4 -i 42 -a 4 -x {3.0 5.3 20 ------- null}
- -t 0.38112 -s 4 -d 5 -p cbr -e 1000 -c 4 -i 42 -a 4 -x {3.0 5.3 20 ------- null}
h -t 0.38112 -s 4 -d 5 -p cbr -e 1000 -c 4 -i 42 -a 4 -x {3.0 5.3 -1 ------- null}
+ -t 0.384 -s 3 -d 4 -p cbr -e 1000 -c 4 -i 45 -a 4 -x {3.0 5.3 23 ------- null}
- -t 0.384 -s 3 -d 4 -p cbr -e 1000 -c 4 -i 45 -a 4 -x {3.0 5.3 23 ------- null}
h -t 0.384 -s 3 -d 4 -p cbr -e 1000 -c 4 -i 45 -a 4 -x {3.0 5.3 -1 ------- null}
r -t 0.38568 -s 4 -d 5 -p cbr -e 1000 -c 4 -i 32 -a 4 -x {3.0 5.3 18 ------- null}
r -t 0.387872 -s 4 -d 5 -p tcp -e 1040 -c 2 -i 33 -a 2 -x {0.0 5.0 7 ------- null}
+ -t 0.387872 -s 5 -d 4 -p ack -e 40 -c 2 -i 46 -a 2 -x {5.0 0.0 7 ------- null}
- -t 0.387872 -s 5 -d 4 -p ack -e 40 -c 2 -i 46 -a 2 -x {5.0 0.0 7 ------- null}
h -t 0.387872 -s 5 -d 4 -p ack -e 40 -c 2 -i 46 -a 2 -x {5.0 0.0 -1 ------- null}
r -t 0.38808 -s 3 -d 4 -p cbr -e 1000 -c 4 -i 43 -a 4 -x {3.0 5.3 21 ------- null}
+ -t 0.38808 -s 4 -d 5 -p cbr -e 1000 -c 4 -i 43 -a 4 -x {3.0 5.3 21 ------- null}
- -t 0.38808 -s 4 -d 5 -p cbr -e 1000 -c 4 -i 43 -a 4 -x {3.0 5.3 21 ------- null}
h -t 0.38808 -s 4 -d 5 -p cbr -e 1000 -c 4 -i 43 -a 4 -x {3.0 5.3 -1 ------- null}
r -t 0.389536 -s 4 -d 5 -p tcp -e 1040 -c 2 -i 34 -a 2 -x {0.0 5.0 8 ------- null}
+ -t 0.389536 -s 5 -d 4 -p ack -e 40 -c 2 -i 47 -a 2 -x {5.0 0.0 8 ------- null}
- -t 0.389536 -s 5 -d 4 -p ack -e 40 -c 2 -i 47 -a 2 -x {5.0 0.0 8 ------- null}
h -t 0.389536 -s 5 -d 4 -p ack -e 40 -c 2 -i 47 -a 2 -x {5.0 0.0 -1 ------- null}
r -t 0.3912 -s 4 -d 5 -p tcp -e 1040 -c 2 -i 35 -a 2 -x {0.0 5.0 9 ------- null}