+ 0.1 0 4 tcp 40 ------- 2 0.0 5.0 0 0
- 0.1 0 4 tcp 40 ------- 2 0.0 5.0 0 0
r 0.120032 0 4 tcp 40 ------- 2 0.0 5.0 0 0
+ 0.120032 4 5 tcp 40 ------- 2 0.0 5.0 0 0
- 0.120032 4 5 tcp 40 ------- 2 0.0 5.0 0 0
r 0.130038 4 5 tcp 40 ------- 2 0.0 5.0 0 0
+ 0.130038 5 4 ack 40 ------- 2 5.0 0.0 0 1
- 0.130038 5 4 ack 40 ------- 2 5.0 0.0 0 1
r 0.140045 5 4 ack 40 ------- 2 5.0 0.0 0 1
+ 0.140045 4 0 ack 40 ------- 2 5.0 0.0 0 1
- 0.140045 4 0 ack 40 ------- 2 5.0 0.0 0 1
r 0.160077 4 0 ack 40 ------- 2 5.0 0.0 0 1
+ 0.160077 0 4 tcp 1040 ------- 2 0.0 5.0 1 2
- 0.160077 0 4 tcp 1040 ------- 2 0.0 5.0 1 2
+ 0.160077 0 4 tcp 1040 ------- 2 0.0 5.0 2 3
- 0.160909 0 4 tcp 1040 ------- 2 0.0 5.0 2 3
r 0.180909 0 4 tcp 1040 ------- 2 0.0 5.0 1 2
+ 0.180909 4 5 tcp 1040 ------- 2 0.0 5.0 1 2
- 0.180909 4 5 tcp 1040 ------- 2 0.0 5.0 1 2
r 0.181741 0 4 tcp 1040 ------- 2 0.0 5.0 2 3
+ 0.181741 4 5 tcp 1040 ------- 2 0.0 5.0 2 3
- 0.181741 4 5 tcp 1040 ------- 2 0.0 5.0 2 3
r 0.191075 4 5 tcp 1040 ------- 2 0.0 5.0 1 2
+ 0.191075 5 4 ack 40 ------- 2 5.0 0.0 1 4
- 0.191075 5 4 ack 40 ------- 2 5.0 0.0 1 4
r 0.191907 4 5 tcp 1040 ------- 2 0.0 5.0 2 3
+ 0.191907 5 4 ack 40 ------- 2 5.0 0.0 2 5
- 0.191907 5 4 ack 40 ------- 2 5.0 0.0 2 5
+ 0.2 3 4 cbr 1000 ------- 4 3.0 5.3 0 6
- 0.2 3 4 cbr 1000 ------- 4 3.0 5.3 0 6
r 0.201082 5 4 ack 40 ------- 2 5.0 0.0 1 4
+ 0.201082 4 0 ack 40 ------- 2 5.0 0.0 1 4
- 0.201082 4 0 ack 40 ------- 2 5.0 0.0 1 4
r 0.201914 5 4 ack 40 ------- 2 5.0 0.0 2 5
+ 0.201914 4 0 ack 40 ------- 2 5.0 0.0 2 5
- 0.201914 4 0 ack 40 ------- 2 5.0 0.0 2 5
+ 0.208 3 4 cbr 1000 ------- 4 3.0 5.3 1 7
- 0.208 3 4 cbr 1000 ------- 4 3.0 5.3 1 7
+ 0.216 3 4 cbr 1000 ------- 4 3.0 5.3 2 8
- 0.216 3 4 cbr 1000 ------- 4 3.0 5.3 2 8
r 0.22008 3 4 cbr 1000 ------- 4 3.0 5.3 0 6
+ 0.22008 4 5 cbr 1000 ------- 4 3.0 5.3 0 6
- 0.22008 4 5 cbr 1000 ------- 4 3.0 5.3 0 6
r 0.221114 4 0 ack 40 ------- 2 5.0 0.0 1 4
+ 0.221114 0 4 tcp 1040 ------- 2 0.0 5.0 3 9
- 0.221114 0 4 tcp 1040 ------- 2 0.0 5.0 3 9
+ 0.221114 0 4 tcp 1040 ------- 2 0.0 5.0 4 10
r 0.221946 4 0 ack 40 ------- 2 5.0 0.0 2 5
+ 0.221946 0 4 tcp 1040 ------- 2 0.0 5.0 5 11
+ 0.221946 0 4 tcp 1040 ------- 2 0.0 5.0 6 12
- 0.221946 0 4 tcp 1040 ------- 2 0.0 5.0 4 10
- 0.222778 0 4 tcp 1040 ------- 2 0.0 5.0 5 11
- 0.22361 0 4 tcp 1040 ------- 2 0.0 5.0 6 12
+ 0.224 3 4 cbr 1000 ------- 4 3.0 5.3 3 13
- 0.224 3 4 cbr 1000 ------- 4 3.0 5.3 3 13
r 0.22808 3 4 cbr 1000 ------- 4 3.0 5.3 1 7
+ 0.22808 4 5 cbr 1000 ------- 4 3.0 5.3 1 7
- 0.22808 4 5 cbr 1000 ------- 4 3.0 5.3 1 7
r 0.23024 4 5 cbr 1000 ------- 4 3.0 5.3 0 6
+ 0.232 3 4 cbr 1000 ------- 4 3.0 5.3 4 14
- 0.232 3 4 cbr 1000 ------- 4 3.0 5.3 4 14
r 0.23608 3 4 cbr 1000 ------- 4 3.0 5.3 2 8
+ 0.23608 4 5 cbr 1000 ------- 4 3.0 5.3 2 8
- 0.23608 4 5 cbr 1000 ------- 4 3.0 5.3 2 8
r 0.23824 4 5 cbr 1000 ------- 4 3.0 5.3 1 7
+ 0.24 3 4 cbr 1000 ------- 4 3.0 5.3 5 15
- 0.24 3 4 cbr 1000 ------- 4 3.0 5.3 5 15
r 0.241946 0 4 tcp 1040 ------- 2 0.0 5.0 3 9
+ 0.241946 4 5 tcp 1040 ------- 2 0.0 5.0 3 9
- 0.241946 4 5 tcp 1040 ------- 2 0.0 5.0 3 9
r 0.242778 0 4 tcp 1040 ------- 2 0.0 5.0 4 10
+ 0.242778 4 5 tcp 1040 ------- 2 0.0 5.0 4 10
- 0.242778 4 5 tcp 1040 ------- 2 0.0 5.0 4 10
r 0.24361 0 4 tcp 1040 ------- 2 0.0 5.0 5 11
+ 0.24361 4 5 tcp 1040 ------- 2 0.0 5.0 5 11
- 0.24361 4 5 tcp 1040 ------- 2 0.0 5.0 5 11
r 0.24408 3 4 cbr 1000 ------- 4 3.0 5.3 3 13
+ 0.24408 4 5 cbr 1000 ------- 4 3.0 5.3 3 13
- 0.24408 4 5 cbr 1000 ------- 4 3.0 5.3 3 13
r 0.244442 0 4 tcp 1040 ------- 2 0.0 5.0 6 12
+ 0.244442 4 5 tcp 1040 ------- 2 0.0 5.0 6 12
- 0.244442 4 5 tcp 1040 ------- 2 0.0 5.0 6 12
r 0.24624 4 5 cbr 1000 ------- 4 3.0 5.3 2 8
+ 0.248 3 4 cbr 1000 ------- 4 3.0 5.3 6 16
- 0.248 3 4 cbr 1000 ------- 4 3.0 5.3 6 16
r 0.25208 3 4 cbr 1000 ------- 4 3.0 5.3 4 14
+ 0.25208 4 5 cbr 1000 ------- 4 3.0 5.3 4 14
- 0.25208 4 5 cbr 1000 ------- 4 3.0 5.3 4 14
r 0.252112 4 5 tcp 1040 ------- 2 0.0 5.0 3 9
+ 0.252112 5 4 ack 40 ------- 2 5.0 0.0 3 17
- 0.252112 5 4 ack 40 ------- 2 5.0 0.0 3 17
r 0.252944 4 5 tcp 1040 ------- 2 0.0 5.0 4 10
+ 0.252944 5 4 ack 40 ------- 2 5.0 0.0 4 18
- 0.252944 5 4 ack 40 ------- 2 5.0 0.0 4 18
r 0.253776 4 5 tcp 1040 ------- 2 0.0 5.0 5 11
+ 0.253776 5 4 ack 40 ------- 2 5.0 0.0 5 19
- 0.253776 5 4 ack 40 ------- 2 5.0 0.0 5 19
r 0.25424 4 5 cbr 1000 ------- 4 3.0 5.3 3 13
r 0.254608 4 5 tcp 1040 ------- 2 0.0 5.0 6 12
+ 0.254608 5 4 ack 40 ------- 2 5.0 0.0 6 20
- 0.254608 5 4 ack 40 ------- 2 5.0 0.0 6 20
+ 0.256 3 4 cbr 1000 ------- 4 3.0 5.3 7 21
- 0.256 3 4 cbr 1000 ------- 4 3.0 5.3 7 21
r 0.26008 3 4 cbr 1000 ------- 4 3.0 5.3 5 15
+ 0.26008 4 5 cbr 1000 ------- 4 3.0 5.3 5 15
- 0.26008 4 5 cbr 1000 ------- 4 3.0 5.3 5 15
r 0.262118 5 4 ack 40 ------- 2 5.0 0.0 3 17
+ 0.262118 4 0 ack 40 ------- 2 5.0 0.0 3 17
- 0.262118 4 0 ack 40 ------- 2 5.0 0.0 3 17
r 0.26224 4 5 cbr 1000 ------- 4 3.0 5.3 4 14
r 0.26295 5 4 ack 40 ------- 2 5.0 0.0 4 18
+ 0.26295 4 0 ack 40 ------- 2 5.0 0.0 4 18
- 0.26295 4 0 ack 40 ------- 2 5.0 0.0 4 18
r 0.263782 5 4 ack 40 ------- 2 5.0 0.0 5 19
+ 0.263782 4 0 ack 40 ------- 2 5.0 0.0 5 19
- 0.263782 4 0 ack 40 ------- 2 5.0 0.0 5 19
+ 0.264 3 4 cbr 1000 ------- 4 3.0 5.3 8 22
- 0.264 3 4 cbr 1000 ------- 4 3.0 5.3 8 22
r 0.264614 5 4 ack 40 ------- 2 5.0 0.0 6 20
+ 0.264614 4 0 ack 40 ------- 2 5.0 0.0 6 20
- 0.264614 4 0 ack 40 ------- 2 5.0 0.0 6 20
r 0.26808 3 4 cbr 1000 ------- 4 3.0 5.3 6 16
+ 0.26808 4 5 cbr 1000 ------- 4 3.0 5.3 6 16
- 0.26808 4 5 cbr 1000 ------- 4 3.0 5.3 6 16
r 0.27024 4 5 cbr 1000 ------- 4 3.0 5.3 5 15
+ 0.272 3 4 cbr 1000 ------- 4 3.0 5.3 9 23
- 0.272 3 4 cbr 1000 ------- 4 3.0 5.3 9 23
r 0.27608 3 4 cbr 1000 ------- 4 3.0 5.3 7 21
+ 0.27608 4 5 cbr 1000 ------- 4 3.0 5.3 7 21
- 0.27608 4 5 cbr 1000 ------- 4 3.0 5.3 7 21
r 0.27824 4 5 cbr 1000 ------- 4 3.0 5.3 6 16
+ 0.28 3 4 cbr 1000 ------- 4 3.0 5.3 10 24
- 0.28 3 4 cbr 1000 ------- 4 3.0 5.3 10 24
r 0.28215 4 0 ack 40 ------- 2 5.0 0.0 3 17
+ 0.28215 0 4 tcp 1040 ------- 2 0.0 5.0 7 25
- 0.28215 0 4 tcp 1040 ------- 2 0.0 5.0 7 25
+ 0.28215 0 4 tcp 1040 ------- 2 0.0 5.0 8 26
r 0.282982 4 0 ack 40 ------- 2 5.0 0.0 4 18
+ 0.282982 0 4 tcp 1040 ------- 2 0.0 5.0 9 27
+ 0.282982 0 4 tcp 1040 ------- 2 0.0 5.0 10 28
- 0.282982 0 4 tcp 1040 ------- 2 0.0 5.0 8 26
r 0.283814 4 0 ack 40 ------- 2 5.0 0.0 5 19
+ 0.283814 0 4 tcp 1040 ------- 2 0.0 5.0 11 29
+ 0.283814 0 4 tcp 1040 ------- 2 0.0 5.0 12 30
- 0.283814 0 4 tcp 1040 ------- 2 0.0 5.0 9 27
r 0.28408 3 4 cbr 1000 ------- 4 3.0 5.3 8 22
+ 0.28408 4 5 cbr 1000 ------- 4 3.0 5.3 8 22
- 0.28408 4 5 cbr 1000 ------- 4 3.0 5.3 8 22
r 0.284646 4 0 ack 40 ------- 2 5.0 0.0 6 20
+ 0.284646 0 4 tcp 1040 ------- 2 0.0 5.0 13 31
+ 0.284646 0 4 tcp 1040 ------- 2 0.0 5.0 14 32
- 0.284646 0 4 tcp 1040 ------- 2 0.0 5.0 10 28
- 0.285478 0 4 tcp 1040 ------- 2 0.0 5.0 11 29
r 0.28624 4 5 cbr 1000 ------- 4 3.0 5.3 7 21
- 0.28631 0 4 tcp 1040 ------- 2 0.0 5.0 12 30
- 0.287142 0 4 tcp 1040 ------- 2 0.0 5.0 13 31
- 0.287974 0 4 tcp 1040 ------- 2 0.0 5.0 14 32
+ 0.288 3 4 cbr 1000 ------- 4 3.0 5.3 11 33
- 0.288 3 4 cbr 1000 ------- 4 3.0 5.3 11 33
r 0.29208 3 4 cbr 1000 ------- 4 3.0 5.3 9 23
+ 0.29208 4 5 cbr 1000 ------- 4 3.0 5.3 9 23
- 0.29208 4 5 cbr 1000 ------- 4 3.0 5.3 9 23
r 0.29424 4 5 cbr 1000 ------- 4 3.0 5.3 8 22
+ 0.296 3 4 cbr 1000 ------- 4 3.0 5.3 12 34
- 0.296 3 4 cbr 1000 ------- 4 3.0 5.3 12 34
r 0.30008 3 4 cbr 1000 ------- 4 3.0 5.3 10 24
+ 0.30008 4 5 cbr 1000 ------- 4 3.0 5.3 10 24
- 0.30008 4 5 cbr 1000 ------- 4 3.0 5.3 10 24
r 0.30224 4 5 cbr 1000 ------- 4 3.0 5.3 9 23
r 0.302982 0 4 tcp 1040 ------- 2 0.0 5.0 7 25
+ 0.302982 4 5 tcp 1040 ------- 2 0.0 5.0 7 25
- 0.302982 4 5 tcp 1040 ------- 2 0.0 5.0 7 25
r 0.303814 0 4 tcp 1040 ------- 2 0.0 5.0 8 26
+ 0.303814 4 5 tcp 1040 ------- 2 0.0 5.0 8 26
- 0.303814 4 5 tcp 1040 ------- 2 0.0 5.0 8 26
+ 0.304 3 4 cbr 1000 ------- 4 3.0 5.3 13 35
- 0.304 3 4 cbr 1000 ------- 4 3.0 5.3 13 35
r 0.304646 0 4 tcp 1040 ------- 2 0.0 5.0 9 27
+ 0.304646 4 5 tcp 1040 ------- 2 0.0 5.0 9 27
- 0.304646 4 5 tcp 1040 ------- 2 0.0 5.0 9 27
r 0.305478 0 4 tcp 1040 ------- 2 0.0 5.0 10 28
+ 0.305478 4 5 tcp 1040 ------- 2 0.0 5.0 10 28
- 0.305478 4 5 tcp 1040 ------- 2 0.0 5.0 10 28
r 0.30631 0 4 tcp 1040 ------- 2 0.0 5.0 11 29
+ 0.30631 4 5 tcp 1040 ------- 2 0.0 5.0 11 29
- 0.30631 4 5 tcp 1040 ------- 2 0.0 5.0 11 29
r 0.307142 0 4 tcp 1040 ------- 2 0.0 5.0 12 30
+ 0.307142 4 5 tcp 1040 ------- 2 0.0 5.0 12 30
- 0.307142 4 5 tcp 1040 ------- 2 0.0 5.0 12 30
r 0.307974 0 4 tcp 1040 ------- 2 0.0 5.0 13 31
+ 0.307974 4 5 tcp 1040 ------- 2 0.0 5.0 13 31
- 0.307974 4 5 tcp 1040 ------- 2 0.0 5.0 13 31
r 0.30808 3 4 cbr 1000 ------- 4 3.0 5.3 11 33
+ 0.30808 4 5 cbr 1000 ------- 4 3.0 5.3 11 33
- 0.308141 4 5 cbr 1000 ------- 4 3.0 5.3 11 33
r 0.308806 0 4 tcp 1040 ------- 2 0.0 5.0 14 32
+ 0.308806 4 5 tcp 1040 ------- 2 0.0 5.0 14 32
- 0.308806 4 5 tcp 1040 ------- 2 0.0 5.0 14 32
r 0.31024 4 5 cbr 1000 ------- 4 3.0 5.3 10 24
+ 0.312 3 4 cbr 1000 ------- 4 3.0 5.3 14 36
- 0.312 3 4 cbr 1000 ------- 4 3.0 5.3 14 36
r 0.313149 4 5 tcp 1040 ------- 2 0.0 5.0 7 25
+ 0.313149 5 4 ack 40 ------- 2 5.0 0.0 7 37
- 0.313149 5 4 ack 40 ------- 2 5.0 0.0 7 37
r 0.313981 4 5 tcp 1040 ------- 2 0.0 5.0 8 26
+ 0.313981 5 4 ack 40 ------- 2 5.0 0.0 8 38
- 0.313981 5 4 ack 40 ------- 2 5.0 0.0 8 38
r 0.314813 4 5 tcp 1040 ------- 2 0.0 5.0 9 27
+ 0.314813 5 4 ack 40 ------- 2 5.0 0.0 9 39
- 0.314813 5 4 ack 40 ------- 2 5.0 0.0 9 39
r 0.315645 4 5 tcp 1040 ------- 2 0.0 5.0 10 28
+ 0.315645 5 4 ack 40 ------- 2 5.0 0.0 10 40
- 0.315645 5 4 ack 40 ------- 2 5.0 0.0 10 40
r 0.31608 3 4 cbr 1000 ------- 4 3.0 5.3 12 34
+ 0.31608 4 5 cbr 1000 ------- 4 3.0 5.3 12 34
- 0.31608 4 5 cbr 1000 ------- 4 3.0 5.3 12 34
r 0.316477 4 5 tcp 1040 ------- 2 0.0 5.0 11 29
+ 0.316477 5 4 ack 40 ------- 2 5.0 0.0 11 41
- 0.316477 5 4 ack 40 ------- 2 5.0 0.0 11 41
r 0.317309 4 5 tcp 1040 ------- 2 0.0 5.0 12 30
+ 0.317309 5 4 ack 40 ------- 2 5.0 0.0 12 42
- 0.317309 5 4 ack 40 ------- 2 5.0 0.0 12 42
r 0.318141 4 5 tcp 1040 ------- 2 0.0 5.0 13 31
+ 0.318141 5 4 ack 40 ------- 2 5.0 0.0 13 43
- 0.318141 5 4 ack 40 ------- 2 5.0 0.0 13 43
r 0.318301 4 5 cbr 1000 ------- 4 3.0 5.3 11 33
r 0.318973 4 5 tcp 1040 ------- 2 0.0 5.0 14 32
+ 0.318973 5 4 ack 40 ------- 2 5.0 0.0 14 44
- 0.318973 5 4 ack 40 ------- 2 5.0 0.0 14 44
+ 0.32 3 4 cbr 1000 ------- 4 3.0 5.3 15 45
- 0.32 3 4 cbr 1000 ------- 4 3.0 5.3 15 45
r 0.323155 5 4 ack 40 ------- 2 5.0 0.0 7 37
+ 0.323155 4 0 ack 40 ------- 2 5.0 0.0 7 37
- 0.323155 4 0 ack 40 ------- 2 5.0 0.0 7 37
r 0.323987 5 4 ack 40 ------- 2 5.0 0.0 8 38
+ 0.323987 4 0 ack 40 ------- 2 5.0 0.0 8 38
- 0.323987 4 0 ack 40 ------- 2 5.0 0.0 8 38
r 0.32408 3 4 cbr 1000 ------- 4 3.0 5.3 13 35
+ 0.32408 4 5 cbr 1000 ------- 4 3.0 5.3 13 35
- 0.32408 4 5 cbr 1000 ------- 4 3.0 5.3 13 35
r 0.324819 5 4 ack 40 ------- 2 5.0 0.0 9 39
+ 0.324819 4 0 ack 40 ------- 2 5.0 0.0 9 39
- 0.324819 4 0 ack 40 ------- 2 5.0 0.0 9 39
r 0.325651 5 4 ack 40 ------- 2 5.0 0.0 10 40
+ 0.325651 4 0 ack 40 ------- 2 5.0 0.0 10 40
- 0.325651 4 0 ack 40 ------- 2 5.0 0.0 10 40
r 0.32624 4 5 cbr 1000 ------- 4 3.0 5.3 12 34
r 0.326483 5 4 ack 40 ------- 2 5.0 0.0 11 41
+ 0.326483 4 0 ack 40 ------- 2 5.0 0.0 11 41
- 0.326483 4 0 ack 40 ------- 2 5.0 0.0 11 41
r 0.327315 5 4 ack 40 ------- 2 5.0 0.0 12 42
+ 0.327315 4 0 ack 40 ------- 2 5.0 0.0 12 42
- 0.327315 4 0 ack 40 ------- 2 5.0 0.0 12 42
+ 0.328 3 4 cbr 1000 ------- 4 3.0 5.3 16 46
- 0.328 3 4 cbr 1000 ------- 4 3.0 5.3 16 46
r 0.328147 5 4 ack 40 ------- 2 5.0 0.0 13 43
+ 0.328147 4 0 ack 40 ------- 2 5.0 0.0 13 43
- 0.328147 4 0 ack 40 ------- 2 5.0 0.0 13 43
r 0.328979 5 4 ack 40 ------- 2 5.0 0.0 14 44
+ 0.328979 4 0 ack 40 ------- 2 5.0 0.0 14 44
- 0.328979 4 0 ack 40 ------- 2 5.0 0.0 14 44
r 0.33208 3 4 cbr 1000 ------- 4 3.0 5.3 14 36
+ 0.33208 4 5 cbr 1000 ------- 4 3.0 5.3 14 36
- 0.33208 4 5 cbr 1000 ------- 4 3.0 5.3 14 36
r 0.33424 4 5 cbr 1000 ------- 4 3.0 5.3 13 35
+ 0.336 3 4 cbr 1000 ------- 4 3.0 5.3 17 47
- 0.336 3 4 cbr 1000 ------- 4 3.0 5.3 17 47
r 0.34008 3 4 cbr 1000 ------- 4 3.0 5.3 15 45
+ 0.34008 4 5 cbr 1000 ------- 4 3.0 5.3 15 45
- 0.34008 4 5 cbr 1000 ------- 4 3.0 5.3 15 45
r 0.34224 4 5 cbr 1000 ------- 4 3.0 5.3 14 36
r 0.343187 4 0 ack 40 ------- 2 5.0 0.0 7 37
+ 0.343187 0 4 tcp 1040 ------- 2 0.0 5.0 15 48
- 0.343187 0 4 tcp 1040 ------- 2 0.0 5.0 15 48
+ 0.343187 0 4 tcp 1040 ------- 2 0.0 5.0 16 49
+ 0.344 3 4 cbr 1000 ------- 4 3.0 5.3 18 50
- 0.344 3 4 cbr 1000 ------- 4 3.0 5.3 18 50
r 0.344019 4 0 ack 40 ------- 2 5.0 0.0 8 38
+ 0.344019 0 4 tcp 1040 ------- 2 0.0 5.0 17 51
+ 0.344019 0 4 tcp 1040 ------- 2 0.0 5.0 18 52
- 0.344019 0 4 tcp 1040 ------- 2 0.0 5.0 16 49
r 0.344851 4 0 ack 40 ------- 2 5.0 0.0 9 39
+ 0.344851 0 4 tcp 1040 ------- 2 0.0 5.0 19 53
+ 0.344851 0 4 tcp 1040 ------- 2 0.0 5.0 20 54
- 0.344851 0 4 tcp 1040 ------- 2 0.0 5.0 17 51
r 0.345683 4 0 ack 40 ------- 2 5.0 0.0 10 40
+ 0.345683 0 4 tcp 1040 ------- 2 0.0 5.0 21 55
+ 0.345683 0 4 tcp 1040 ------- 2 0.0 5.0 22 56
- 0.345683 0 4 tcp 1040 ------- 2 0.0 5.0 18 52
r 0.346515 4 0 ack 40 ------- 2 5.0 0.0 11 41
+ 0.346515 0 4 tcp 1040 ------- 2 0.0 5.0 23 57
+ 0.346515 0 4 tcp 1040 ------- 2 0.0 5.0 24 58
- 0.346515 0 4 tcp 1040 ------- 2 0.0 5.0 19 53
r 0.347347 4 0 ack 40 ------- 2 5.0 0.0 12 42
+ 0.347347 0 4 tcp 1040 ------- 2 0.0 5.0 25 59
+ 0.347347 0 4 tcp 1040 ------- 2 0.0 5.0 26 60
- 0.347347 0 4 tcp 1040 ------- 2 0.0 5.0 20 54
r 0.34808 3 4 cbr 1000 ------- 4 3.0 5.3 16 46
+ 0.34808 4 5 cbr 1000 ------- 4 3.0 5.3 16 46
- 0.34808 4 5 cbr 1000 ------- 4 3.0 5.3 16 46
r 0.348179 4 0 ack 40 ------- 2 5.0 0.0 13 43
+ 0.348179 0 4 tcp 1040 ------- 2 0.0 5.0 27 61
+ 0.348179 0 4 tcp 1040 ------- 2 0.0 5.0 28 62
- 0.348179 0 4 tcp 1040 ------- 2 0.0 5.0 21 55
r 0.349011 4 0 ack 40 ------- 2 5.0 0.0 14 44
+ 0.349011 0 4 tcp 1040 ------- 2 0.0 5.0 29 63
+ 0.349011 0 4 tcp 1040 ------- 2 0.0 5.0 30 64
- 0.349011 0 4 tcp 1040 ------- 2 0.0 5.0 22 56
- 0.349843 0 4 tcp 1040 ------- 2 0.0 5.0 23 57
r 0.35024 4 5 cbr 1000 ------- 4 3.0 5.3 15 45
- 0.350675 0 4 tcp 1040 ------- 2 0.0 5.0 24 58
- 0.351507 0 4 tcp 1040 ------- 2 0.0 5.0 25 59
+ 0.352 3 4 cbr 1000 ------- 4 3.0 5.3 19 65
- 0.352 3 4 cbr 1000 ------- 4 3.0 5.3 19 65
- 0.352339 0 4 tcp 1040 ------- 2 0.0 5.0 26 60
- 0.353171 0 4 tcp 1040 ------- 2 0.0 5.0 27 61
- 0.354003 0 4 tcp 1040 ------- 2 0.0 5.0 28 62
- 0.354835 0 4 tcp 1040 ------- 2 0.0 5.0 29 63
- 0.355667 0 4 tcp 1040 ------- 2 0.0 5.0 30 64
r 0.35608 3 4 cbr 1000 ------- 4 3.0 5.3 17 47
+ 0.35608 4 5 cbr 1000 ------- 4 3.0 5.3 17 47
- 0.35608 4 5 cbr 1000 ------- 4 3.0 5.3 17 47
r 0.35824 4 5 cbr 1000 ------- 4 3.0 5.3 16 46
+ 0.36 3 4 cbr 1000 ------- 4 3.0 5.3 20 66
- 0.36 3 4 cbr 1000 ------- 4 3.0 5.3 20 66
r 0.364019 0 4 tcp 1040 ------- 2 0.0 5.0 15 48
+ 0.364019 4 5 tcp 1040 ------- 2 0.0 5.0 15 48
- 0.364019 4 5 tcp 1040 ------- 2 0.0 5.0 15 48
r 0.36408 3 4 cbr 1000 ------- 4 3.0 5.3 18 50
+ 0.36408 4 5 cbr 1000 ------- 4 3.0 5.3 18 50
- 0.364186 4 5 cbr 1000 ------- 4 3.0 5.3 18 50
r 0.364851 0 4 tcp 1040 ------- 2 0.0 5.0 16 49
+ 0.364851 4 5 tcp 1040 ------- 2 0.0 5.0 16 49
- 0.364851 4 5 tcp 1040 ------- 2 0.0 5.0 16 49
r 0.365683 0 4 tcp 1040 ------- 2 0.0 5.0 17 51
+ 0.365683 4 5 tcp 1040 ------- 2 0.0 5.0 17 51
- 0.365683 4 5 tcp 1040 ------- 2 0.0 5.0 17 51
r 0.36624 4 5 cbr 1000 ------- 4 3.0 5.3 17 47
r 0.366515 0 4 tcp 1040 ------- 2 0.0 5.0 18 52
+ 0.366515 4 5 tcp 1040 ------- 2 0.0 5.0 18 52
- 0.366515 4 5 tcp 1040 ------- 2 0.0 5.0 18 52
r 0.367347 0 4 tcp 1040 ------- 2 0.0 5.0 19 53
+ 0.367347 4 5 tcp 1040 ------- 2 0.0 5.0 19 53
- 0.367347 4 5 tcp 1040 ------- 2 0.0 5.0 19 53
+ 0.368 3 4 cbr 1000 ------- 4 3.0 5.3 21 67
- 0.368 3 4 cbr 1000 ------- 4 3.0 5.3 21 67
r 0.368179 0 4 tcp 1040 ------- 2 0.0 5.0 20 54
+ 0.368179 4 5 tcp 1040 ------- 2 0.0 5.0 20 54
- 0.368179 4 5 tcp 1040 ------- 2 0.0 5.0 20 54
r 0.369011 0 4 tcp 1040 ------- 2 0.0 5.0 21 55
+ 0.369011 4 5 tcp 1040 ------- 2 0.0 5.0 21 55
- 0.369011 4 5 tcp 1040 ------- 2 0.0 5.0 21 55
r 0.369843 0 4 tcp 1040 ------- 2 0.0 5.0 22 56
+ 0.369843 4 5 tcp 1040 ------- 2 0.0 5.0 22 56
- 0.369843 4 5 tcp 1040 ------- 2 0.0 5.0 22 56
r 0.370675 0 4 tcp 1040 ------- 2 0.0 5.0 23 57
+ 0.370675 4 5 tcp 1040 ------- 2 0.0 5.0 23 57
- 0.370675 4 5 tcp 1040 ------- 2 0.0 5.0 23 57
r 0.371507 0 4 tcp 1040 ------- 2 0.0 5.0 24 58
+ 0.371507 4 5 tcp 1040 ------- 2 0.0 5.0 24 58
- 0.371507 4 5 tcp 1040 ------- 2 0.0 5.0 24 58
r 0.37208 3 4 cbr 1000 ------- 4 3.0 5.3 19 65
+ 0.37208 4 5 cbr 1000 ------- 4 3.0 5.3 19 65
- 0.37208 4 5 cbr 1000 ------- 4 3.0 5.3 19 65
r 0.372339 0 4 tcp 1040 ------- 2 0.0 5.0 25 59
+ 0.372339 4 5 tcp 1040 ------- 2 0.0 5.0 25 59
- 0.372339 4 5 tcp 1040 ------- 2 0.0 5.0 25 59
r 0.373171 0 4 tcp 1040 ------- 2 0.0 5.0 26 60
+ 0.373171 4 5 tcp 1040 ------- 2 0.0 5.0 26 60
- 0.373171 4 5 tcp 1040 ------- 2 0.0 5.0 26 60
r 0.374003 0 4 tcp 1040 ------- 2 0.0 5.0 27 61
+ 0.374003 4 5 tcp 1040 ------- 2 0.0 5.0 27 61
- 0.374003 4 5 tcp 1040 ------- 2 0.0 5.0 27 61
r 0.374186 4 5 tcp 1040 ------- 2 0.0 5.0 15 48
+ 0.374186 5 4 ack 40 ------- 2 5.0 0.0 15 68
- 0.374186 5 4 ack 40 ------- 2 5.0 0.0 15 68
r 0.374346 4 5 cbr 1000 ------- 4 3.0 5.3 18 50
r 0.374835 0 4 tcp 1040 ------- 2 0.0 5.0 28 62
+ 0.374835 4 5 tcp 1040 ------- 2 0.0 5.0 28 62
- 0.374835 4 5 tcp 1040 ------- 2 0.0 5.0 28 62
r 0.375018 4 5 tcp 1040 ------- 2 0.0 5.0 16 49
+ 0.375018 5 4 ack 40 ------- 2 5.0 0.0 16 69
- 0.375018 5 4 ack 40 ------- 2 5.0 0.0 16 69
r 0.375667 0 4 tcp 1040 ------- 2 0.0 5.0 29 63
+ 0.375667 4 5 tcp 1040 ------- 2 0.0 5.0 29 63
- 0.375667 4 5 tcp 1040 ------- 2 0.0 5.0 29 63
r 0.37585 4 5 tcp 1040 ------- 2 0.0 5.0 17 51
+ 0.37585 5 4 ack 40 ------- 2 5.0 0.0 17 70
- 0.37585 5 4 ack 40 ------- 2 5.0 0.0 17 70
+ 0.376 3 4 cbr 1000 ------- 4 3.0 5.3 22 71
- 0.376 3 4 cbr 1000 ------- 4 3.0 5.3 22 71
r 0.376499 0 4 tcp 1040 ------- 2 0.0 5.0 30 64
+ 0.376499 4 5 tcp 1040 ------- 2 0.0 5.0 30 64
- 0.376499 4 5 tcp 1040 ------- 2 0.0 5.0 30 64
r 0.376682 4 5 tcp 1040 ------- 2 0.0 5.0 18 52
+ 0.376682 5 4 ack 40 ------- 2 5.0 0.0 18 72
- 0.376682 5 4 ack 40 ------- 2 5.0 0.0 18 72
r 0.377514 4 5 tcp 1040 ------- 2 0.0 5.0 19 53
+ 0.377514 5 4 ack 40 ------- 2 5.0 0.0 19 73
- 0.377514 5 4 ack 40 ------- 2 5.0 0.0 19 73
r 0.378346 4 5 tcp 1040 ------- 2 0.0 5.0 20 54
+ 0.378346 5 4 ack 40 ------- 2 5.0 0.0 20 74
- 0.378346 5 4 ack 40 ------- 2 5.0 0.0 20 74
r 0.379178 4 5 tcp 1040 ------- 2 0.0 5.0 21 55
+ 0.379178 5 4 ack 40 ------- 2 5.0 0.0 21 75
- 0.379178 5 4 ack 40 ------- 2 5.0 0.0 21 75
r 0.38001 4 5 tcp 1040 ------- 2 0.0 5.0 22 56
+ 0.38001 5 4 ack 40 ------- 2 5.0 0.0 22 76
- 0.38001 5 4 ack 40 ------- 2 5.0 0.0 22 76
r 0.38008 3 4 cbr 1000 ------- 4 3.0 5.3 20 66
+ 0.38008 4 5 cbr 1000 ------- 4 3.0 5.3 20 66
- 0.38008 4 5 cbr 1000 ------- 4 3.0 5.3 20 66
r 0.380842 4 5 tcp 1040 ------- 2 0.0 5.0 23 57
+ 0.380842 5 4 ack 40 ------- 2 5.0 0.0 23 77
- 0.380842 5 4 ack 40 ------- 2 5.0 0.0 23 77
r 0.381674 4 5 tcp 1040 ------- 2 0.0 5.0 24 58
+ 0.381674 5 4 ack 40 ------- 2 5.0 0.0 24 78
- 0.381674 5 4 ack 40 ------- 2 5.0 0.0 24 78
r 0.38224 4 5 cbr 1000 ------- 4 3.0 5.3 19 65
r 0.382506 4 5 tcp 1040 ------- 2 0.0 5.0 25 59
+ 0.382506 5 4 ack 40 ------- 2 5.0 0.0 25 79
- 0.382506 5 4 ack 40 ------- 2 5.0 0.0 25 79
r 0.383338 4 5 tcp 1040 ------- 2 0.0 5.0 26 60
+ 0.383338 5 4 ack 40 ------- 2 5.0 0.0 26 80
- 0.383338 5 4 ack 40 ------- 2 5.0 0.0 26 80
+ 0.384 3 4 cbr 1000 ------- 4 3.0 5.3 23 81
- 0.384 3 4 cbr 1000 ------- 4 3.0 5.3 23 81
r 0.38417 4 5 tcp 1040 ------- 2 0.0 5.0 27 61
+ 0.38417 5 4 ack 40 ------- 2 5.0 0.0 27 82
- 0.38417 5 4 ack 40 ------- 2 5.0 0.0 27 82
r 0.384192 5 4 ack 40 ------- 2 5.0 0.0 15 68
+ 0.384192 4 0 ack 40 ------- 2 5.0 0.0 15 68
- 0.384192 4 0 ack 40 ------- 2 5.0 0.0 15 68
r 0.385002 4 5 tcp 1040 ------- 2 0.0 5.0 28 62
+ 0.385002 5 4 ack 40 ------- 2 5.0 0.0 28 83
- 0.385002 5 4 ack 40 ------- 2 5.0 0.0 28 83
r 0.385024 5 4 ack 40 ------- 2 5.0 0.0 16 69
+ 0.385024 4 0 ack 40 ------- 2 5.0 0.0 16 69
- 0.385024 4 0 ack 40 ------- 2 5.0 0.0 16 69
r 0.385834 4 5 tcp 1040 ------- 2 0.0 5.0 29 63
+ 0.385834 5 4 ack 40 ------- 2 5.0 0.0 29 84
- 0.385834 5 4 ack 40 ------- 2 5.0 0.0 29 84
r 0.385856 5 4 ack 40 ------- 2 5.0 0.0 17 70
+ 0.385856 4 0 ack 40 ------- 2 5.0 0.0 17 70
- 0.385856 4 0 ack 40 ------- 2 5.0 0.0 17 70
r 0.386666 4 5 tcp 1040 ------- 2 0.0 5.0 30 64
+ 0.386666 5 4 ack 40 ------- 2 5.0 0.0 30 85
- 0.386666 5 4 ack 40 ------- 2 5.0 0.0 30 85
r 0.386688 5 4 ack 40 ------- 2 5.0 0.0 18 72
+ 0.386688 4 0 ack 40 ------- 2 5.0 0.0 18 72
- 0.386688 4 0 ack 40 ------- 2 5.0 0.0 18 72
r 0.38752 5 4 ack 40 ------- 2 5.0 0.0 19 73
+ 0.38752 4 0 ack 40 ------- 2 5.0 0.0 19 73
- 0.38752 4 0 ack 40 ------- 2 5.0 0.0 19 73
r 0.38808 3 4 cbr 1000 ------- 4 3.0 5.3 21 67
+ 0.38808 4 5 cbr 1000 ------- 4 3.0 5.3 21 67
- 0.38808 4 5 cbr 1000 ------- 4 3.0 5.3 21 67
r 0.388352 5 4 ack 40 ------- 2 5.0 0.0 20 74
+ 0.388352 4 0 ack 40 ------- 2 5.0 0.0 20 74
- 0.388352 4 0 ack 40 ------- 2 5.0 0.0 20 74
r 0.389184 5 4 ack 40 ------- 2 5.0 0.0 21 75
+ 0.389184 4 0 ack 40 ------- 2 5.0 0.0 21 75
- 0.389184 4 0 ack 40 ------- 2 5.0 0.0 21 75
r 0.390016 5 4 ack 40 ------- 2 5.0 0.0 22 76
+ 0.390016 4 0 ack 40 ------- 2 5.0 0.0 22 76
- 0.390016 4 0 ack 40 ------- 2 5.0 0.0 22 76
r 0.39024 4 5 cbr 1000 ------- 4 3.0 5.3 20 66
r 0.390848 5 4 ack 40 ------- 2 5.0 0.0 23 77
+ 0.390848 4 0 ack 40 ------- 2 5.0 0.0 23 77
- 0.390848 4 0 ack 40 ------- 2 5.0 0.0 23 77
r 0.39168 5 4 ack 40 ------- 2 5.0 0.0 24 78
+ 0.39168 4 0 ack 40 ------- 2 5.0 0.0 24 78
- 0.39168 4 0 ack 40 ------- 2 5.0 0.0 24 78
+ 0.392 3 4 cbr 1000 ------- 4 3.0 5.3 24 86
- 0.392 3 4 cbr 1000 ------- 4 3.0 5.3 24 86
r 0.392512 5 4 ack 40 ------- 2 5.0 0.0 25 79
+ 0.392512 4 0 ack 40 ------- 2 5.0 0.0 25 79
- 0.392512 4 0 ack 40 ------- 2 5.0 0.0 25 79
r 0.393344 5 4 ack 40 ------- 2 5.0 0.0 26 80
+ 0.393344 4 0 ack 40 ------- 2 5.0 0.0 26 80
- 0.393344 4 0 ack 40 ------- 2 5.0 0.0 26 80
r 0.394176 5 4 ack 40 ------- 2 5.0 0.0 27 82
+ 0.394176 4 0 ack 40 ------- 2 5.0 0.0 27 82
- 0.394176 4 0 ack 40 ------- 2 5.0 0.0 27 82
r 0.395008 5 4 ack 40 ------- 2 5.0 0.0 28 83
+ 0.395008 4 0 ack 40 ------- 2 5.0 0.0 28 83
- 0.395008 4 0 ack 40 ------- 2 5.0 0.0 28 83
r 0.39584 5 4 ack 40 ------- 2 5.0 0.0 29 84
+ 0.39584 4 0 ack 40 ------- 2 5.0 0.0 29 84
- 0.39584 4 0 ack 40 ------- 2 5.0 0.0 29 84
r 0.39608 3 4 cbr 1000 ------- 4 3.0 5.3 22 71
+ 0.39608 4 5 cbr 1000 ------- 4 3.0 5.3 22 71
- 0.39608 4 5 cbr 1000 ------- 4 3.0 5.3 22 71
r 0.396672 5 4 ack 40 ------- 2 5.0 0.0 30 85
+ 0.396672 4 0 ack 40 ------- 2 5.0 0.0 30 85
- 0.396672 4 0 ack 40 ------- 2 5.0 0.0 30 85
r 0.39824 4 5 cbr 1000 ------- 4 3.0 5.3 21 67
+ 0.4 3 4 cbr 1000 ------- 4 3.0 5.3 25 87
- 0.4 3 4 cbr 1000 ------- 4 3.0 5.3 25 87
r 0.40408 3 4 cbr 1000 ------- 4 3.0 5.3 23 81
+ 0.40408 4 5 cbr 1000 ------- 4 3.0 5.3 23 81
- 0.40408 4 5 cbr 1000 ------- 4 3.0 5.3 23 81
r 0.404224 4 0 ack 40 ------- 2 5.0 0.0 15 68
+ 0.404224 0 4 tcp 1040 ------- 2 0.0 5.0 31 88
- 0.404224 0 4 tcp 1040 ------- 2 0.0 5.0 31 88
+ 0.404224 0 4 tcp 1040 ------- 2 0.0 5.0 32 89
r 0.405056 4 0 ack 40 ------- 2 5.0 0.0 16 69
+ 0.405056 0 4 tcp 1040 ------- 2 0.0 5.0 33 90
+ 0.405056 0 4 tcp 1040 ------- 2 0.0 5.0 34 91
- 0.405056 0 4 tcp 1040 ------- 2 0.0 5.0 32 89
r 0.405888 4 0 ack 40 ------- 2 5.0 0.0 17 70
+ 0.405888 0 4 tcp 1040 ------- 2 0.0 5.0 35 92
+ 0.405888 0 4 tcp 1040 ------- 2 0.0 5.0 36 93
- 0.405888 0 4 tcp 1040 ------- 2 0.0 5.0 33 90
r 0.40624 4 5 cbr 1000 ------- 4 3.0 5.3 22 71
r 0.40672 4 0 ack 40 ------- 2 5.0 0.0 18 72
+ 0.40672 0 4 tcp 1040 ------- 2 0.0 5.0 37 94
+ 0.40672 0 4 tcp 1040 ------- 2 0.0 5.0 38 95
- 0.40672 0 4 tcp 1040 ------- 2 0.0 5.0 34 91
r 0.407552 4 0 ack 40 ------- 2 5.0 0.0 19 73
+ 0.407552 0 4 tcp 1040 ------- 2 0.0 5.0 39 96
- 0.407552 0 4 tcp 1040 ------- 2 0.0 5.0 35 92
+ 0.408 3 4 cbr 1000 ------- 4 3.0 5.3 26 97
- 0.408 3 4 cbr 1000 ------- 4 3.0 5.3 26 97
r 0.408384 4 0 ack 40 ------- 2 5.0 0.0 20 74
+ 0.408384 0 4 tcp 1040 ------- 2 0.0 5.0 40 98
- 0.408384 0 4 tcp 1040 ------- 2 0.0 5.0 36 93
r 0.409216 4 0 ack 40 ------- 2 5.0 0.0 21 75
+ 0.409216 0 4 tcp 1040 ------- 2 0.0 5.0 41 99
- 0.409216 0 4 tcp 1040 ------- 2 0.0 5.0 37 94
r 0.410048 4 0 ack 40 ------- 2 5.0 0.0 22 76
+ 0.410048 0 4 tcp 1040 ------- 2 0.0 5.0 42 100
- 0.410048 0 4 tcp 1040 ------- 2 0.0 5.0 38 95
r 0.41088 4 0 ack 40 ------- 2 5.0 0.0 23 77
+ 0.41088 0 4 tcp 1040 ------- 2 0.0 5.0 43 101
- 0.41088 0 4 tcp 1040 ------- 2 0.0 5.0 39 96
r 0.411712 4 0 ack 40 ------- 2 5.0 0.0 24 78
+ 0.411712 0 4 tcp 1040 ------- 2 0.0 5.0 44 102
- 0.411712 0 4 tcp 1040 ------- 2 0.0 5.0 40 98
r 0.41208 3 4 cbr 1000 ------- 4 3.0 5.3 24 86
+ 0.41208 4 5 cbr 1000 ------- 4 3.0 5.3 24 86
- 0.41208 4 5 cbr 1000 ------- 4 3.0 5.3 24 86
r 0.412544 4 0 ack 40 ------- 2 5.0 0.0 25 79
+ 0.412544 0 4 tcp 1040 ------- 2 0.0 5.0 45 103
- 0.412544 0 4 tcp 1040 ------- 2 0.0 5.0 41 99
r 0.413376 4 0 ack 40 ------- 2 5.0 0.0 26 80
+ 0.413376 0 4 tcp 1040 ------- 2 0.0 5.0 46 104
- 0.413376 0 4 tcp 1040 ------- 2 0.0 5.0 42 100
r 0.414208 4 0 ack 40 ------- 2 5.0 0.0 27 82
+ 0.414208 0 4 tcp 1040 ------- 2 0.0 5.0 47 105
- 0.414208 0 4 tcp 1040 ------- 2 0.0 5.0 43 101
r 0.41424 4 5 cbr 1000 ------- 4 3.0 5.3 23 81
r 0.41504 4 0 ack 40 ------- 2 5.0 0.0 28 83
+ 0.41504 0 4 tcp 1040 ------- 2 0.0 5.0 48 106
- 0.41504 0 4 tcp 1040 ------- 2 0.0 5.0 44 102
r 0.415872 4 0 ack 40 ------- 2 5.0 0.0 29 84
+ 0.415872 0 4 tcp 1040 ------- 2 0.0 5.0 49 107
- 0.415872 0 4 tcp 1040 ------- 2 0.0 5.0 45 103
+ 0.416 3 4 cbr 1000 ------- 4 3.0 5.3 27 108
- 0.416 3 4 cbr 1000 ------- 4 3.0 5.3 27 108
r 0.416704 4 0 ack 40 ------- 2 5.0 0.0 30 85
+ 0.416704 0 4 tcp 1040 ------- 2 0.0 5.0 50 109
- 0.416704 0 4 tcp 1040 ------- 2 0.0 5.0 46 104
- 0.417536 0 4 tcp 1040 ------- 2 0.0 5.0 47 105
- 0.418368 0 4 tcp 1040 ------- 2 0.0 5.0 48 106
- 0.4192 0 4 tcp 1040 ------- 2 0.0 5.0 49 107
- 0.420032 0 4 tcp 1040 ------- 2 0.0 5.0 50 109
r 0.42008 3 4 cbr 1000 ------- 4 3.0 5.3 25 87
+ 0.42008 4 5 cbr 1000 ------- 4 3.0 5.3 25 87
- 0.42008 4 5 cbr 1000 ------- 4 3.0 5.3 25 87
r 0.42224 4 5 cbr 1000 ------- 4 3.0 5.3 24 86
+ 0.424 3 4 cbr 1000 ------- 4 3.0 5.3 28 110
- 0.424 3 4 cbr 1000 ------- 4 3.0 5.3 28 110
r 0.425056 0 4 tcp 1040 ------- 2 0.0 5.0 31 88
+ 0.425056 4 5 tcp 1040 ------- 2 0.0 5.0 31 88
- 0.425056 4 5 tcp 1040 ------- 2 0.0 5.0 31 88
r 0.425888 0 4 tcp 1040 ------- 2 0.0 5.0 32 89
+ 0.425888 4 5 tcp 1040 ------- 2 0.0 5.0 32 89
- 0.425888 4 5 tcp 1040 ------- 2 0.0 5.0 32 89
r 0.42672 0 4 tcp 1040 ------- 2 0.0 5.0 33 90
+ 0.42672 4 5 tcp 1040 ------- 2 0.0 5.0 33 90
- 0.42672 4 5 tcp 1040 ------- 2 0.0 5.0 33 90
r 0.427552 0 4 tcp 1040 ------- 2 0.0 5.0 34 91
+ 0.427552 4 5 tcp 1040 ------- 2 0.0 5.0 34 91
- 0.427552 4 5 tcp 1040 ------- 2 0.0 5.0 34 91
r 0.42808 3 4 cbr 1000 ------- 4 3.0 5.3 26 97
+ 0.42808 4 5 cbr 1000 ------- 4 3.0 5.3 26 97
- 0.42808 4 5 cbr 1000 ------- 4 3.0 5.3 26 97
r 0.428384 0 4 tcp 1040 ------- 2 0.0 5.0 35 92
+ 0.428384 4 5 tcp 1040 ------- 2 0.0 5.0 35 92
- 0.428384 4 5 tcp 1040 ------- 2 0.0 5.0 35 92
r 0.429216 0 4 tcp 1040 ------- 2 0.0 5.0 36 93
+ 0.429216 4 5 tcp 1040 ------- 2 0.0 5.0 36 93
- 0.429216 4 5 tcp 1040 ------- 2 0.0 5.0 36 93
r 0.430048 0 4 tcp 1040 ------- 2 0.0 5.0 37 94
+ 0.430048 4 5 tcp 1040 ------- 2 0.0 5.0 37 94
- 0.430048 4 5 tcp 1040 ------- 2 0.0 5.0 37 94
r 0.43024 4 5 cbr 1000 ------- 4 3.0 5.3 25 87
r 0.43088 0 4 tcp 1040 ------- 2 0.0 5.0 38 95
+ 0.43088 4 5 tcp 1040 ------- 2 0.0 5.0 38 95
- 0.43088 4 5 tcp 1040 ------- 2 0.0 5.0 38 95
r 0.431712 0 4 tcp 1040 ------- 2 0.0 5.0 39 96
+ 0.431712 4 5 tcp 1040 ------- 2 0.0 5.0 39 96
- 0.431712 4 5 tcp 1040 ------- 2 0.0 5.0 39 96
+ 0.432 3 4 cbr 1000 ------- 4 3.0 5.3 29 111
- 0.432 3 4 cbr 1000 ------- 4 3.0 5.3 29 111
r 0.432544 0 4 tcp 1040 ------- 2 0.0 5.0 40 98
+ 0.432544 4 5 tcp 1040 ------- 2 0.0 5.0 40 98
- 0.432544 4 5 tcp 1040 ------- 2 0.0 5.0 40 98
r 0.433376 0 4 tcp 1040 ------- 2 0.0 5.0 41 99
+ 0.433376 4 5 tcp 1040 ------- 2 0.0 5.0 41 99
- 0.433376 4 5 tcp 1040 ------- 2 0.0 5.0 41 99
r 0.434208 0 4 tcp 1040 ------- 2 0.0 5.0 42 100
+ 0.434208 4 5 tcp 1040 ------- 2 0.0 5.0 42 100
- 0.434208 4 5 tcp 1040 ------- 2 0.0 5.0 42 100
r 0.43504 0 4 tcp 1040 ------- 2 0.0 5.0 43 101
+ 0.43504 4 5 tcp 1040 ------- 2 0.0 5.0 43 101
- 0.43504 4 5 tcp 1040 ------- 2 0.0 5.0 43 101
r 0.435222 4 5 tcp 1040 ------- 2 0.0 5.0 31 88
+ 0.435222 5 4 ack 40 ------- 2 5.0 0.0 31 112
- 0.435222 5 4 ack 40 ------- 2 5.0 0.0 31 112
r 0.435872 0 4 tcp 1040 ------- 2 0.0 5.0 44 102
+ 0.435872 4 5 tcp 1040 ------- 2 0.0 5.0 44 102
- 0.435872 4 5 tcp 1040 ------- 2 0.0 5.0 44 102
r 0.436054 4 5 tcp 1040 ------- 2 0.0 5.0 32 89
+ 0.436054 5 4 ack 40 ------- 2 5.0 0.0 32 113
- 0.436054 5 4 ack 40 ------- 2 5.0 0.0 32 113
r 0.43608 3 4 cbr 1000 ------- 4 3.0 5.3 27 108
+ 0.43608 4 5 cbr 1000 ------- 4 3.0 5.3 27 108
- 0.43608 4 5 cbr 1000 ------- 4 3.0 5.3 27 108
r 0.436704 0 4 tcp 1040 ------- 2 0.0 5.0 45 103
+ 0.436704 4 5 tcp 1040 ------- 2 0.0 5.0 45 103
- 0.436704 4 5 tcp 1040 ------- 2 0.0 5.0 45 103
r 0.436886 4 5 tcp 1040 ------- 2 0.0 5.0 33 90
+ 0.436886 5 4 ack 40 ------- 2 5.0 0.0 33 114
- 0.436886 5 4 ack 40 ------- 2 5.0 0.0 33 114
r 0.437536 0 4 tcp 1040 ------- 2 0.0 5.0 46 104
+ 0.437536 4 5 tcp 1040 ------- 2 0.0 5.0 46 104
- 0.437536 4 5 tcp 1040 ------- 2 0.0 5.0 46 104
r 0.437718 4 5 tcp 1040 ------- 2 0.0 5.0 34 91
+ 0.437718 5 4 ack 40 ------- 2 5.0 0.0 34 115
- 0.437718 5 4 ack 40 ------- 2 5.0 0.0 34 115
r 0.43824 4 5 cbr 1000 ------- 4 3.0 5.3 26 97
r 0.438368 0 4 tcp 1040 ------- 2 0.0 5.0 47 105